<?xml version="1.0"?>
<VTKFile type="UnstructuredGrid" version="0.1" byte_order="LittleEndian" header_type="UInt32" compressor="vtkZLibDataCompressor">
  <UnstructuredGrid>
    <Piece NumberOfPoints="432" NumberOfCells="0">
      <PointData>
      </PointData>
      <CellData>
        <DataArray type="Float64" Name="Pression frac" format="ascii" RangeMin="1e+299" RangeMax="-1e+299">
        </DataArray>
        <DataArray type="Float64" Name="Temperature frac" format="ascii" RangeMin="1e+299" RangeMax="-1e+299">
        </DataArray>
        <DataArray type="Float64" Name="Phase 1 Comp 1 frac " format="ascii" RangeMin="1e+299" RangeMax="-1e+299">
        </DataArray>
        <DataArray type="Float64" Name="Phase 2 Comp 1 frac " format="ascii" RangeMin="1e+299" RangeMax="-1e+299">
        </DataArray>
        <DataArray type="Float64" Name="Saturation 1 frac" format="ascii" RangeMin="1e+299" RangeMax="-1e+299">
        </DataArray>
        <DataArray type="Float64" Name="Saturation 2 frac" format="ascii" RangeMin="1e+299" RangeMax="-1e+299">
        </DataArray>
      </CellData>
      <Points>
        <DataArray type="Float64" Name="Points" NumberOfComponents="3" format="ascii" RangeMin="1503.5311018" RangeMax="2410.3941586">
          -1500 -1000 -1600 -1403.2258065 -1000 -1600
          -1306.4516129 -1000 -1600 -1209.6774194 -1000 -1600
          -1112.9032258 -1000 -1600 -1016.1290323 -1000 -1600
          -919.35483871 -1000 -1600 -822.58064516 -1000 -1600
          -725.80645161 -1000 -1600 -629.03225806 -1000 -1600
          -532.25806452 -1000 -1600 -435.48387097 -1000 -1600
          -338.70967742 -1000 -1600 -241.93548387 -1000 -1600
          -1500 -818.18181818 -1600 -1403.2258065 -818.18181818 -1600
          -1306.4516129 -818.18181818 -1600 -1209.6774194 -818.18181818 -1600
          -1112.9032258 -818.18181818 -1600 -1016.1290323 -818.18181818 -1600
          -919.35483871 -818.18181818 -1600 -822.58064516 -818.18181818 -1600
          -725.80645161 -818.18181818 -1600 -629.03225806 -818.18181818 -1600
          -532.25806452 -818.18181818 -1600 -435.48387097 -818.18181818 -1600
          -338.70967742 -818.18181818 -1600 -241.93548387 -818.18181818 -1600
          -1500 -636.36363636 -1600 -1403.2258065 -636.36363636 -1600
          -1306.4516129 -636.36363636 -1600 -1209.6774194 -636.36363636 -1600
          -1112.9032258 -636.36363636 -1600 -1016.1290323 -636.36363636 -1600
          -919.35483871 -636.36363636 -1600 -822.58064516 -636.36363636 -1600
          -725.80645161 -636.36363636 -1600 -629.03225806 -636.36363636 -1600
          -532.25806452 -636.36363636 -1600 -435.48387097 -636.36363636 -1600
          -338.70967742 -636.36363636 -1600 -241.93548387 -636.36363636 -1600
          -1500 -454.54545455 -1600 -1403.2258065 -454.54545455 -1600
          -1306.4516129 -454.54545455 -1600 -1209.6774194 -454.54545455 -1600
          -1112.9032258 -454.54545455 -1600 -1016.1290323 -454.54545455 -1600
          -919.35483871 -454.54545455 -1600 -822.58064516 -454.54545455 -1600
          -725.80645161 -454.54545455 -1600 -629.03225806 -454.54545455 -1600
          -532.25806452 -454.54545455 -1600 -435.48387097 -454.54545455 -1600
          -338.70967742 -454.54545455 -1600 -241.93548387 -454.54545455 -1600
          -1500 -272.72727273 -1600 -1403.2258065 -272.72727273 -1600
          -1306.4516129 -272.72727273 -1600 -1209.6774194 -272.72727273 -1600
          -1112.9032258 -272.72727273 -1600 -1016.1290323 -272.72727273 -1600
          -919.35483871 -272.72727273 -1600 -822.58064516 -272.72727273 -1600
          -725.80645161 -272.72727273 -1600 -629.03225806 -272.72727273 -1600
          -532.25806452 -272.72727273 -1600 -435.48387097 -272.72727273 -1600
          -338.70967742 -272.72727273 -1600 -241.93548387 -272.72727273 -1600
          -1500 -90.909090909 -1600 -1403.2258065 -90.909090909 -1600
          -1306.4516129 -90.909090909 -1600 -1209.6774194 -90.909090909 -1600
          -1112.9032258 -90.909090909 -1600 -1016.1290323 -90.909090909 -1600
          -919.35483871 -90.909090909 -1600 -822.58064516 -90.909090909 -1600
          -725.80645161 -90.909090909 -1600 -629.03225806 -90.909090909 -1600
          -532.25806452 -90.909090909 -1600 -435.48387097 -90.909090909 -1600
          -338.70967742 -90.909090909 -1600 -241.93548387 -90.909090909 -1600
          -145.16129032 -90.909090909 -1600 -1500 90.909090909 -1600
          -1403.2258065 90.909090909 -1600 -1306.4516129 90.909090909 -1600
          -1209.6774194 90.909090909 -1600 -1112.9032258 90.909090909 -1600
          -1016.1290323 90.909090909 -1600 -919.35483871 90.909090909 -1600
          -822.58064516 90.909090909 -1600 -725.80645161 90.909090909 -1600
          -629.03225806 90.909090909 -1600 -532.25806452 90.909090909 -1600
          -435.48387097 90.909090909 -1600 -338.70967742 90.909090909 -1600
          -241.93548387 90.909090909 -1600 -145.16129032 90.909090909 -1600
          -48.387096774 90.909090909 -1600 -1500 272.72727273 -1600
          -1403.2258065 272.72727273 -1600 -1306.4516129 272.72727273 -1600
          -1209.6774194 272.72727273 -1600 -1112.9032258 272.72727273 -1600
          -1016.1290323 272.72727273 -1600 -919.35483871 272.72727273 -1600
          -822.58064516 272.72727273 -1600 -725.80645161 272.72727273 -1600
          -629.03225806 272.72727273 -1600 -532.25806452 272.72727273 -1600
          -435.48387097 272.72727273 -1600 -338.70967742 272.72727273 -1600
          -241.93548387 272.72727273 -1600 -145.16129032 272.72727273 -1600
          -48.387096774 272.72727273 -1600 48.387096774 272.72727273 -1600
          -1500 454.54545455 -1600 -1403.2258065 454.54545455 -1600
          -1306.4516129 454.54545455 -1600 -1209.6774194 454.54545455 -1600
          -1112.9032258 454.54545455 -1600 -1016.1290323 454.54545455 -1600
          -919.35483871 454.54545455 -1600 -822.58064516 454.54545455 -1600
          -725.80645161 454.54545455 -1600 -629.03225806 454.54545455 -1600
          -532.25806452 454.54545455 -1600 -435.48387097 454.54545455 -1600
          -338.70967742 454.54545455 -1600 -241.93548387 454.54545455 -1600
          -145.16129032 454.54545455 -1600 -48.387096774 454.54545455 -1600
          48.387096774 454.54545455 -1600 -1500 636.36363636 -1600
          -1403.2258065 636.36363636 -1600 -1306.4516129 636.36363636 -1600
          -1209.6774194 636.36363636 -1600 -1112.9032258 636.36363636 -1600
          -1016.1290323 636.36363636 -1600 -919.35483871 636.36363636 -1600
          -822.58064516 636.36363636 -1600 -725.80645161 636.36363636 -1600
          -629.03225806 636.36363636 -1600 -532.25806452 636.36363636 -1600
          -435.48387097 636.36363636 -1600 -338.70967742 636.36363636 -1600
          -241.93548387 636.36363636 -1600 -145.16129032 636.36363636 -1600
          -48.387096774 636.36363636 -1600 48.387096774 636.36363636 -1600
          -1500 818.18181818 -1600 -1403.2258065 818.18181818 -1600
          -1306.4516129 818.18181818 -1600 -1209.6774194 818.18181818 -1600
          -1112.9032258 818.18181818 -1600 -1016.1290323 818.18181818 -1600
          -919.35483871 818.18181818 -1600 -822.58064516 818.18181818 -1600
          -725.80645161 818.18181818 -1600 -629.03225806 818.18181818 -1600
          -532.25806452 818.18181818 -1600 -435.48387097 818.18181818 -1600
          -338.70967742 818.18181818 -1600 -241.93548387 818.18181818 -1600
          -145.16129032 818.18181818 -1600 -48.387096774 818.18181818 -1600
          48.387096774 818.18181818 -1600 145.16129032 818.18181818 -1600
          -1500 1000 -1600 -1403.2258065 1000 -1600
          -1306.4516129 1000 -1600 -1209.6774194 1000 -1600
          -1112.9032258 1000 -1600 -1016.1290323 1000 -1600
          -919.35483871 1000 -1600 -822.58064516 1000 -1600
          -725.80645161 1000 -1600 -629.03225806 1000 -1600
          -532.25806452 1000 -1600 -435.48387097 1000 -1600
          -338.70967742 1000 -1600 -241.93548387 1000 -1600
          -145.16129032 1000 -1600 -48.387096774 1000 -1600
          48.387096774 1000 -1600 145.16129032 1000 -1600
          -1500 -1000 -1500 -1403.2258065 -1000 -1500
          -1306.4516129 -1000 -1500 -1209.6774194 -1000 -1500
          -1112.9032258 -1000 -1500 -1016.1290323 -1000 -1500
          -919.35483871 -1000 -1500 -822.58064516 -1000 -1500
          -725.80645161 -1000 -1500 -629.03225806 -1000 -1500
          -532.25806452 -1000 -1500 -435.48387097 -1000 -1500
          -338.70967742 -1000 -1500 -241.93548387 -1000 -1500
          -1500 -818.18181818 -1500 -1403.2258065 -818.18181818 -1500
          -1306.4516129 -818.18181818 -1500 -1209.6774194 -818.18181818 -1500
          -1112.9032258 -818.18181818 -1500 -1016.1290323 -818.18181818 -1500
          -919.35483871 -818.18181818 -1500 -822.58064516 -818.18181818 -1500
          -725.80645161 -818.18181818 -1500 -629.03225806 -818.18181818 -1500
          -532.25806452 -818.18181818 -1500 -435.48387097 -818.18181818 -1500
          -338.70967742 -818.18181818 -1500 -241.93548387 -818.18181818 -1500
          -1500 -636.36363636 -1500 -1403.2258065 -636.36363636 -1500
          -1306.4516129 -636.36363636 -1500 -1209.6774194 -636.36363636 -1500
          -1112.9032258 -636.36363636 -1500 -1016.1290323 -636.36363636 -1500
          -919.35483871 -636.36363636 -1500 -822.58064516 -636.36363636 -1500
          -725.80645161 -636.36363636 -1500 -629.03225806 -636.36363636 -1500
          -532.25806452 -636.36363636 -1500 -435.48387097 -636.36363636 -1500
          -338.70967742 -636.36363636 -1500 -241.93548387 -636.36363636 -1500
          -1500 -454.54545455 -1500 -1403.2258065 -454.54545455 -1500
          -1306.4516129 -454.54545455 -1500 -1209.6774194 -454.54545455 -1500
          -1112.9032258 -454.54545455 -1500 -1016.1290323 -454.54545455 -1500
          -919.35483871 -454.54545455 -1500 -822.58064516 -454.54545455 -1500
          -725.80645161 -454.54545455 -1500 -629.03225806 -454.54545455 -1500
          -532.25806452 -454.54545455 -1500 -435.48387097 -454.54545455 -1500
          -338.70967742 -454.54545455 -1500 -241.93548387 -454.54545455 -1500
          -1500 -272.72727273 -1500 -1403.2258065 -272.72727273 -1500
          -1306.4516129 -272.72727273 -1500 -1209.6774194 -272.72727273 -1500
          -1112.9032258 -272.72727273 -1500 -1016.1290323 -272.72727273 -1500
          -919.35483871 -272.72727273 -1500 -822.58064516 -272.72727273 -1500
          -725.80645161 -272.72727273 -1500 -629.03225806 -272.72727273 -1500
          -532.25806452 -272.72727273 -1500 -435.48387097 -272.72727273 -1500
          -338.70967742 -272.72727273 -1500 -241.93548387 -272.72727273 -1500
          -1500 -90.909090909 -1500 -1403.2258065 -90.909090909 -1500
          -1306.4516129 -90.909090909 -1500 -1209.6774194 -90.909090909 -1500
          -1112.9032258 -90.909090909 -1500 -1016.1290323 -90.909090909 -1500
          -919.35483871 -90.909090909 -1500 -822.58064516 -90.909090909 -1500
          -725.80645161 -90.909090909 -1500 -629.03225806 -90.909090909 -1500
          -532.25806452 -90.909090909 -1500 -435.48387097 -90.909090909 -1500
          -338.70967742 -90.909090909 -1500 -241.93548387 -90.909090909 -1500
          -145.16129032 -90.909090909 -1500 -1500 90.909090909 -1500
          -1403.2258065 90.909090909 -1500 -1306.4516129 90.909090909 -1500
          -1209.6774194 90.909090909 -1500 -1112.9032258 90.909090909 -1500
          -1016.1290323 90.909090909 -1500 -919.35483871 90.909090909 -1500
          -822.58064516 90.909090909 -1500 -725.80645161 90.909090909 -1500
          -629.03225806 90.909090909 -1500 -532.25806452 90.909090909 -1500
          -435.48387097 90.909090909 -1500 -338.70967742 90.909090909 -1500
          -241.93548387 90.909090909 -1500 -145.16129032 90.909090909 -1500
          -48.387096774 90.909090909 -1500 -1500 272.72727273 -1500
          -1403.2258065 272.72727273 -1500 -1306.4516129 272.72727273 -1500
          -1209.6774194 272.72727273 -1500 -1112.9032258 272.72727273 -1500
          -1016.1290323 272.72727273 -1500 -919.35483871 272.72727273 -1500
          -822.58064516 272.72727273 -1500 -725.80645161 272.72727273 -1500
          -629.03225806 272.72727273 -1500 -532.25806452 272.72727273 -1500
          -435.48387097 272.72727273 -1500 -338.70967742 272.72727273 -1500
          -241.93548387 272.72727273 -1500 -145.16129032 272.72727273 -1500
          -48.387096774 272.72727273 -1500 48.387096774 272.72727273 -1500
          -1500 454.54545455 -1500 -1403.2258065 454.54545455 -1500
          -1306.4516129 454.54545455 -1500 -1209.6774194 454.54545455 -1500
          -1112.9032258 454.54545455 -1500 -1016.1290323 454.54545455 -1500
          -919.35483871 454.54545455 -1500 -822.58064516 454.54545455 -1500
          -725.80645161 454.54545455 -1500 -629.03225806 454.54545455 -1500
          -532.25806452 454.54545455 -1500 -435.48387097 454.54545455 -1500
          -338.70967742 454.54545455 -1500 -241.93548387 454.54545455 -1500
          -145.16129032 454.54545455 -1500 -48.387096774 454.54545455 -1500
          48.387096774 454.54545455 -1500 -1500 636.36363636 -1500
          -1403.2258065 636.36363636 -1500 -1306.4516129 636.36363636 -1500
          -1209.6774194 636.36363636 -1500 -1112.9032258 636.36363636 -1500
          -1016.1290323 636.36363636 -1500 -919.35483871 636.36363636 -1500
          -822.58064516 636.36363636 -1500 -725.80645161 636.36363636 -1500
          -629.03225806 636.36363636 -1500 -532.25806452 636.36363636 -1500
          -435.48387097 636.36363636 -1500 -338.70967742 636.36363636 -1500
          -241.93548387 636.36363636 -1500 -145.16129032 636.36363636 -1500
          -48.387096774 636.36363636 -1500 48.387096774 636.36363636 -1500
          -1500 818.18181818 -1500 -1403.2258065 818.18181818 -1500
          -1306.4516129 818.18181818 -1500 -1209.6774194 818.18181818 -1500
          -1112.9032258 818.18181818 -1500 -1016.1290323 818.18181818 -1500
          -919.35483871 818.18181818 -1500 -822.58064516 818.18181818 -1500
          -725.80645161 818.18181818 -1500 -629.03225806 818.18181818 -1500
          -532.25806452 818.18181818 -1500 -435.48387097 818.18181818 -1500
          -338.70967742 818.18181818 -1500 -241.93548387 818.18181818 -1500
          -145.16129032 818.18181818 -1500 -48.387096774 818.18181818 -1500
          48.387096774 818.18181818 -1500 145.16129032 818.18181818 -1500
          -1500 1000 -1500 -1403.2258065 1000 -1500
          -1306.4516129 1000 -1500 -1209.6774194 1000 -1500
          -1112.9032258 1000 -1500 -1016.1290323 1000 -1500
          -919.35483871 1000 -1500 -822.58064516 1000 -1500
          -725.80645161 1000 -1500 -629.03225806 1000 -1500
          -532.25806452 1000 -1500 -435.48387097 1000 -1500
          -338.70967742 1000 -1500 -241.93548387 1000 -1500
          -145.16129032 1000 -1500 -48.387096774 1000 -1500
          48.387096774 1000 -1500 145.16129032 1000 -1500
          -145.16129032 -1000 -1600 -48.387096774 -1000 -1600
          -145.16129032 -818.18181818 -1600 -48.387096774 -818.18181818 -1600
          -145.16129032 -636.36363636 -1600 -48.387096774 -636.36363636 -1600
          -145.16129032 -454.54545455 -1600 -48.387096774 -454.54545455 -1600
          -145.16129032 -272.72727273 -1600 -48.387096774 -272.72727273 -1600
          48.387096774 -272.72727273 -1600 -48.387096774 -90.909090909 -1600
          48.387096774 -90.909090909 -1600 145.16129032 -90.909090909 -1600
          48.387096774 90.909090909 -1600 145.16129032 90.909090909 -1600
          241.93548387 90.909090909 -1600 145.16129032 272.72727273 -1600
          241.93548387 272.72727273 -1600 145.16129032 454.54545455 -1600
          241.93548387 454.54545455 -1600 145.16129032 636.36363636 -1600
          241.93548387 636.36363636 -1600 338.70967742 636.36363636 -1600
          241.93548387 818.18181818 -1600 338.70967742 818.18181818 -1600
          241.93548387 1000 -1600 338.70967742 1000 -1600
          -145.16129032 -1000 -1500 -48.387096774 -1000 -1500
          -145.16129032 -818.18181818 -1500 -48.387096774 -818.18181818 -1500
          -145.16129032 -636.36363636 -1500 -48.387096774 -636.36363636 -1500
          -145.16129032 -454.54545455 -1500 -48.387096774 -454.54545455 -1500
          -145.16129032 -272.72727273 -1500 -48.387096774 -272.72727273 -1500
          48.387096774 -272.72727273 -1500 -48.387096774 -90.909090909 -1500
          48.387096774 -90.909090909 -1500 145.16129032 -90.909090909 -1500
          48.387096774 90.909090909 -1500 145.16129032 90.909090909 -1500
          241.93548387 90.909090909 -1500 145.16129032 272.72727273 -1500
          241.93548387 272.72727273 -1500 145.16129032 454.54545455 -1500
          241.93548387 454.54545455 -1500 145.16129032 636.36363636 -1500
          241.93548387 636.36363636 -1500 338.70967742 636.36363636 -1500
          241.93548387 818.18181818 -1500 338.70967742 818.18181818 -1500
          241.93548387 1000 -1500 338.70967742 1000 -1500
        </DataArray>
      </Points>
      <Cells>
        <DataArray type="Int64" Name="connectivity" format="ascii" RangeMin="1e+299" RangeMax="-1e+299">
        </DataArray>
        <DataArray type="Int64" Name="offsets" format="ascii" RangeMin="1e+299" RangeMax="-1e+299">
        </DataArray>
        <DataArray type="UInt8" Name="types" format="ascii" RangeMin="1e+299" RangeMax="-1e+299">
        </DataArray>
      </Cells>
    </Piece>
  </UnstructuredGrid>
</VTKFile>
