<?xml version="1.0"?>
<VTKFile type="UnstructuredGrid" version="0.1" byte_order="LittleEndian" header_type="UInt32" compressor="vtkZLibDataCompressor">
  <UnstructuredGrid>
    <Piece NumberOfPoints="432" NumberOfCells="170">
      <PointData>
      </PointData>
      <CellData>
        <DataArray type="Float64" Name="Pressure cell" format="ascii" RangeMin="10000000" RangeMax="10000000">
          29513233.845 28560395.949 27674028.813 26892942.659 26201335.104 25561545.88
          24945175.327 24337371.053 23731949.011 23126778.348 22521240.511 21915185.352
          21308586.988 20701448.534 29513233.845 28560395.949 27674028.813 26892942.659
          26201335.104 25561545.88 24945175.327 24337371.053 23731949.011 23126778.348
          22521240.512 21915185.352 21308586.988 20701448.534 29513233.845 28560395.949
          27674028.813 26892942.659 26201335.104 25561545.88 24945175.327 24337371.053
          23731949.011 23126778.348 22521240.512 21915185.352 21308586.988 20701448.534
          29513233.845 28560395.949 27674028.813 26892942.659 26201335.104 25561545.88
          24945175.327 24337371.053 23731949.011 23126778.348 22521240.512 21915185.352
          21308586.988 20701448.534 29513233.845 28560395.949 27674028.813 26892942.659
          26201335.104 25561545.88 24945175.327 24337371.053 23731949.011 23126778.348
          22521240.512 21915185.352 21308586.988 20701448.534 29513233.845 28560395.949
          27674028.813 26892942.659 26201335.104 25561545.88 24945175.327 24337371.053
          23731949.011 23126778.348 22521240.512 21915185.352 21308586.988 20701448.534
          20093779.186 29513233.845 28560395.949 27674028.813 26892942.659 26201335.104
          25561545.88 24945175.327 24337371.053 23731949.011 23126778.348 22521240.512
          21915185.352 21308586.989 20701448.534 20093779.186 19485589.312 29513233.845
          28560395.949 27674028.813 26892942.659 26201335.104 25561545.88 24945175.327
          24337371.053 23731949.011 23126778.348 22521240.512 21915185.352 21308586.989
          20701448.535 20093779.186 19485589.312 18876889.495 29513233.845 28560395.949
          27674028.813 26892942.659 26201335.104 25561545.88 24945175.327 24337371.053
          23731949.011 23126778.348 22521240.512 21915185.352 21308586.989 20701448.535
          20093779.186 19485589.312 18876889.495 29513233.845 28560395.949 27674028.813
          26892942.659 26201335.104 25561545.88 24945175.327 24337371.053 23731949.011
          23126778.348 22521240.512 21915185.353 21308586.989 20701448.535 20093779.186
          19485589.312 18876889.495 29513233.845 28560395.949 27674028.813 26892942.659
          26201335.104 25561545.88 24945175.327 24337371.053 23731949.011 23126778.348
          22521240.512 21915185.353 21308586.989 20701448.535 20093779.186 19485589.312
          18876889.495 18267690.363
        </DataArray>
        <DataArray type="Float64" Name="Temperature cell" format="ascii" RangeMin="373.15" RangeMax="373.15">
          333.82571243 337.62095044 346.42515081 357.21526891 365.5903939 370.22116139
          372.19593988 372.88187076 373.0835759 373.13523732 373.14701369 373.14944357
          373.14990355 373.14998432 333.82571243 337.62095044 346.42515081 357.21526891
          365.5903939 370.22116139 372.19593988 372.88187076 373.0835759 373.13523732
          373.14701369 373.14944357 373.14990355 373.14998432 333.82571243 337.62095044
          346.42515081 357.21526891 365.5903939 370.22116139 372.19593988 372.88187076
          373.0835759 373.13523732 373.14701369 373.14944357 373.14990355 373.14998432
          333.82571243 337.62095044 346.42515081 357.21526891 365.5903939 370.22116139
          372.19593988 372.88187076 373.0835759 373.13523732 373.14701369 373.14944357
          373.14990355 373.14998432 333.82571243 337.62095044 346.42515081 357.21526891
          365.5903939 370.22116139 372.19593988 372.88187076 373.0835759 373.13523732
          373.14701369 373.14944357 373.14990355 373.14998432 333.82571243 337.62095044
          346.42515081 357.21526891 365.5903939 370.22116139 372.19593988 372.88187076
          373.0835759 373.13523732 373.14701369 373.14944357 373.14990355 373.14998432
          373.14999759 333.82571243 337.62095044 346.42515081 357.21526891 365.5903939
          370.22116139 372.19593988 372.88187076 373.0835759 373.13523732 373.14701369
          373.14944357 373.14990355 373.14998432 373.14999759 373.14999965 333.82571243
          337.62095044 346.42515081 357.21526891 365.5903939 370.22116139 372.19593988
          372.88187076 373.0835759 373.13523732 373.14701369 373.14944357 373.14990355
          373.14998432 373.14999759 373.14999965 373.14999995 333.82571243 337.62095044
          346.42515081 357.21526891 365.59039391 370.22116139 372.19593988 372.88187076
          373.0835759 373.13523732 373.14701369 373.14944357 373.14990355 373.14998432
          373.14999759 373.14999965 373.14999995 333.82571243 337.62095044 346.42515081
          357.21526891 365.59039391 370.22116139 372.19593988 372.88187076 373.0835759
          373.13523732 373.14701369 373.14944357 373.14990355 373.14998432 373.14999759
          373.14999965 373.14999995 333.82571243 337.62095044 346.42515081 357.21526891
          365.59039391 370.22116139 372.19593988 372.88187076 373.0835759 373.13523732
          373.14701369 373.14944357 373.14990355 373.14998432 373.14999759 373.14999965
          373.14999995 373.14999999
        </DataArray>
        <DataArray type="Float64" Name="Phase 1 Comp 1 cell " format="ascii" RangeMin="1" RangeMax="1">
          1 1 1 1 1 1
          1 1 1 1 1 1
          1 1 1 1 1 1
          1 1 1 1 1 1
          1 1 1 1 1 1
          1 1 1 1 1 1
          1 1 1 1 1 1
          1 1 1 1 1 1
          1 1 1 1 1 1
          1 1 1 1 1 1
          1 1 1 1 1 1
          1 1 1 1 1 1
          1 1 1 1 1 1
          1 1 1 1 1 1
          1 1 1 1 1 1
          1 1 1 1 1 1
          1 1 1 1 1 1
          1 1 1 1 1 1
          1 1 1 1 1 1
          1 1 1 1 1 1
          1 1 1 1 1 1
          1 1 1 1 1 1
          1 1 1 1 1 1
          1 1 1 1 1 1
          1 1 1 1 1 1
          1 1 1 1 1 1
          1 1 1 1 1 1
          1 1 1 1 1 1
          1 1
        </DataArray>
        <DataArray type="Float64" Name="Phase 2 Comp 1 cell " format="ascii" RangeMin="1" RangeMax="1">
          1 1 1 1 1 1
          1 1 1 1 1 1
          1 1 1 1 1 1
          1 1 1 1 1 1
          1 1 1 1 1 1
          1 1 1 1 1 1
          1 1 1 1 1 1
          1 1 1 1 1 1
          1 1 1 1 1 1
          1 1 1 1 1 1
          1 1 1 1 1 1
          1 1 1 1 1 1
          1 1 1 1 1 1
          1 1 1 1 1 1
          1 1 1 1 1 1
          1 1 1 1 1 1
          1 1 1 1 1 1
          1 1 1 1 1 1
          1 1 1 1 1 1
          1 1 1 1 1 1
          1 1 1 1 1 1
          1 1 1 1 1 1
          1 1 1 1 1 1
          1 1 1 1 1 1
          1 1 1 1 1 1
          1 1 1 1 1 1
          1 1 1 1 1 1
          1 1 1 1 1 1
          1 1
        </DataArray>
        <DataArray type="Float64" Name="Saturation 1 cell" format="ascii" RangeMin="0" RangeMax="0">
          0 0 0 0 0 0
          0 0 0 0 0 0
          0 0 0 0 0 0
          0 0 0 0 0 0
          0 0 0 0 0 0
          0 0 0 0 0 0
          0 0 0 0 0 0
          0 0 0 0 0 0
          0 0 0 0 0 0
          0 0 0 0 0 0
          0 0 0 0 0 0
          0 0 0 0 0 0
          0 0 0 0 0 0
          0 0 0 0 0 0
          0 0 0 0 0 0
          0 0 0 0 0 0
          0 0 0 0 0 0
          0 0 0 0 0 0
          0 0 0 0 0 0
          0 0 0 0 0 0
          0 0 0 0 0 0
          0 0 0 0 0 0
          0 0 0 0 0 0
          0 0 0 0 0 0
          0 0 0 0 0 0
          0 0 0 0 0 0
          0 0 0 0 0 0
          0 0 0 0 0 0
          0 0
        </DataArray>
        <DataArray type="Float64" Name="Saturation 2 cell" format="ascii" RangeMin="1" RangeMax="1">
          1 1 1 1 1 1
          1 1 1 1 1 1
          1 1 1 1 1 1
          1 1 1 1 1 1
          1 1 1 1 1 1
          1 1 1 1 1 1
          1 1 1 1 1 1
          1 1 1 1 1 1
          1 1 1 1 1 1
          1 1 1 1 1 1
          1 1 1 1 1 1
          1 1 1 1 1 1
          1 1 1 1 1 1
          1 1 1 1 1 1
          1 1 1 1 1 1
          1 1 1 1 1 1
          1 1 1 1 1 1
          1 1 1 1 1 1
          1 1 1 1 1 1
          1 1 1 1 1 1
          1 1 1 1 1 1
          1 1 1 1 1 1
          1 1 1 1 1 1
          1 1 1 1 1 1
          1 1 1 1 1 1
          1 1 1 1 1 1
          1 1 1 1 1 1
          1 1 1 1 1 1
          1 1
        </DataArray>
      </CellData>
      <Points>
        <DataArray type="Float64" Name="Points" NumberOfComponents="3" format="ascii" RangeMin="1503.5311018" RangeMax="2410.3941586">
          -1500 -1000 -1600 -1403.2258065 -1000 -1600
          -1306.4516129 -1000 -1600 -1209.6774194 -1000 -1600
          -1112.9032258 -1000 -1600 -1016.1290323 -1000 -1600
          -919.35483871 -1000 -1600 -822.58064516 -1000 -1600
          -725.80645161 -1000 -1600 -629.03225806 -1000 -1600
          -532.25806452 -1000 -1600 -435.48387097 -1000 -1600
          -338.70967742 -1000 -1600 -241.93548387 -1000 -1600
          -1500 -818.18181818 -1600 -1403.2258065 -818.18181818 -1600
          -1306.4516129 -818.18181818 -1600 -1209.6774194 -818.18181818 -1600
          -1112.9032258 -818.18181818 -1600 -1016.1290323 -818.18181818 -1600
          -919.35483871 -818.18181818 -1600 -822.58064516 -818.18181818 -1600
          -725.80645161 -818.18181818 -1600 -629.03225806 -818.18181818 -1600
          -532.25806452 -818.18181818 -1600 -435.48387097 -818.18181818 -1600
          -338.70967742 -818.18181818 -1600 -241.93548387 -818.18181818 -1600
          -1500 -636.36363636 -1600 -1403.2258065 -636.36363636 -1600
          -1306.4516129 -636.36363636 -1600 -1209.6774194 -636.36363636 -1600
          -1112.9032258 -636.36363636 -1600 -1016.1290323 -636.36363636 -1600
          -919.35483871 -636.36363636 -1600 -822.58064516 -636.36363636 -1600
          -725.80645161 -636.36363636 -1600 -629.03225806 -636.36363636 -1600
          -532.25806452 -636.36363636 -1600 -435.48387097 -636.36363636 -1600
          -338.70967742 -636.36363636 -1600 -241.93548387 -636.36363636 -1600
          -1500 -454.54545455 -1600 -1403.2258065 -454.54545455 -1600
          -1306.4516129 -454.54545455 -1600 -1209.6774194 -454.54545455 -1600
          -1112.9032258 -454.54545455 -1600 -1016.1290323 -454.54545455 -1600
          -919.35483871 -454.54545455 -1600 -822.58064516 -454.54545455 -1600
          -725.80645161 -454.54545455 -1600 -629.03225806 -454.54545455 -1600
          -532.25806452 -454.54545455 -1600 -435.48387097 -454.54545455 -1600
          -338.70967742 -454.54545455 -1600 -241.93548387 -454.54545455 -1600
          -1500 -272.72727273 -1600 -1403.2258065 -272.72727273 -1600
          -1306.4516129 -272.72727273 -1600 -1209.6774194 -272.72727273 -1600
          -1112.9032258 -272.72727273 -1600 -1016.1290323 -272.72727273 -1600
          -919.35483871 -272.72727273 -1600 -822.58064516 -272.72727273 -1600
          -725.80645161 -272.72727273 -1600 -629.03225806 -272.72727273 -1600
          -532.25806452 -272.72727273 -1600 -435.48387097 -272.72727273 -1600
          -338.70967742 -272.72727273 -1600 -241.93548387 -272.72727273 -1600
          -1500 -90.909090909 -1600 -1403.2258065 -90.909090909 -1600
          -1306.4516129 -90.909090909 -1600 -1209.6774194 -90.909090909 -1600
          -1112.9032258 -90.909090909 -1600 -1016.1290323 -90.909090909 -1600
          -919.35483871 -90.909090909 -1600 -822.58064516 -90.909090909 -1600
          -725.80645161 -90.909090909 -1600 -629.03225806 -90.909090909 -1600
          -532.25806452 -90.909090909 -1600 -435.48387097 -90.909090909 -1600
          -338.70967742 -90.909090909 -1600 -241.93548387 -90.909090909 -1600
          -145.16129032 -90.909090909 -1600 -1500 90.909090909 -1600
          -1403.2258065 90.909090909 -1600 -1306.4516129 90.909090909 -1600
          -1209.6774194 90.909090909 -1600 -1112.9032258 90.909090909 -1600
          -1016.1290323 90.909090909 -1600 -919.35483871 90.909090909 -1600
          -822.58064516 90.909090909 -1600 -725.80645161 90.909090909 -1600
          -629.03225806 90.909090909 -1600 -532.25806452 90.909090909 -1600
          -435.48387097 90.909090909 -1600 -338.70967742 90.909090909 -1600
          -241.93548387 90.909090909 -1600 -145.16129032 90.909090909 -1600
          -48.387096774 90.909090909 -1600 -1500 272.72727273 -1600
          -1403.2258065 272.72727273 -1600 -1306.4516129 272.72727273 -1600
          -1209.6774194 272.72727273 -1600 -1112.9032258 272.72727273 -1600
          -1016.1290323 272.72727273 -1600 -919.35483871 272.72727273 -1600
          -822.58064516 272.72727273 -1600 -725.80645161 272.72727273 -1600
          -629.03225806 272.72727273 -1600 -532.25806452 272.72727273 -1600
          -435.48387097 272.72727273 -1600 -338.70967742 272.72727273 -1600
          -241.93548387 272.72727273 -1600 -145.16129032 272.72727273 -1600
          -48.387096774 272.72727273 -1600 48.387096774 272.72727273 -1600
          -1500 454.54545455 -1600 -1403.2258065 454.54545455 -1600
          -1306.4516129 454.54545455 -1600 -1209.6774194 454.54545455 -1600
          -1112.9032258 454.54545455 -1600 -1016.1290323 454.54545455 -1600
          -919.35483871 454.54545455 -1600 -822.58064516 454.54545455 -1600
          -725.80645161 454.54545455 -1600 -629.03225806 454.54545455 -1600
          -532.25806452 454.54545455 -1600 -435.48387097 454.54545455 -1600
          -338.70967742 454.54545455 -1600 -241.93548387 454.54545455 -1600
          -145.16129032 454.54545455 -1600 -48.387096774 454.54545455 -1600
          48.387096774 454.54545455 -1600 -1500 636.36363636 -1600
          -1403.2258065 636.36363636 -1600 -1306.4516129 636.36363636 -1600
          -1209.6774194 636.36363636 -1600 -1112.9032258 636.36363636 -1600
          -1016.1290323 636.36363636 -1600 -919.35483871 636.36363636 -1600
          -822.58064516 636.36363636 -1600 -725.80645161 636.36363636 -1600
          -629.03225806 636.36363636 -1600 -532.25806452 636.36363636 -1600
          -435.48387097 636.36363636 -1600 -338.70967742 636.36363636 -1600
          -241.93548387 636.36363636 -1600 -145.16129032 636.36363636 -1600
          -48.387096774 636.36363636 -1600 48.387096774 636.36363636 -1600
          -1500 818.18181818 -1600 -1403.2258065 818.18181818 -1600
          -1306.4516129 818.18181818 -1600 -1209.6774194 818.18181818 -1600
          -1112.9032258 818.18181818 -1600 -1016.1290323 818.18181818 -1600
          -919.35483871 818.18181818 -1600 -822.58064516 818.18181818 -1600
          -725.80645161 818.18181818 -1600 -629.03225806 818.18181818 -1600
          -532.25806452 818.18181818 -1600 -435.48387097 818.18181818 -1600
          -338.70967742 818.18181818 -1600 -241.93548387 818.18181818 -1600
          -145.16129032 818.18181818 -1600 -48.387096774 818.18181818 -1600
          48.387096774 818.18181818 -1600 145.16129032 818.18181818 -1600
          -1500 1000 -1600 -1403.2258065 1000 -1600
          -1306.4516129 1000 -1600 -1209.6774194 1000 -1600
          -1112.9032258 1000 -1600 -1016.1290323 1000 -1600
          -919.35483871 1000 -1600 -822.58064516 1000 -1600
          -725.80645161 1000 -1600 -629.03225806 1000 -1600
          -532.25806452 1000 -1600 -435.48387097 1000 -1600
          -338.70967742 1000 -1600 -241.93548387 1000 -1600
          -145.16129032 1000 -1600 -48.387096774 1000 -1600
          48.387096774 1000 -1600 145.16129032 1000 -1600
          -1500 -1000 -1500 -1403.2258065 -1000 -1500
          -1306.4516129 -1000 -1500 -1209.6774194 -1000 -1500
          -1112.9032258 -1000 -1500 -1016.1290323 -1000 -1500
          -919.35483871 -1000 -1500 -822.58064516 -1000 -1500
          -725.80645161 -1000 -1500 -629.03225806 -1000 -1500
          -532.25806452 -1000 -1500 -435.48387097 -1000 -1500
          -338.70967742 -1000 -1500 -241.93548387 -1000 -1500
          -1500 -818.18181818 -1500 -1403.2258065 -818.18181818 -1500
          -1306.4516129 -818.18181818 -1500 -1209.6774194 -818.18181818 -1500
          -1112.9032258 -818.18181818 -1500 -1016.1290323 -818.18181818 -1500
          -919.35483871 -818.18181818 -1500 -822.58064516 -818.18181818 -1500
          -725.80645161 -818.18181818 -1500 -629.03225806 -818.18181818 -1500
          -532.25806452 -818.18181818 -1500 -435.48387097 -818.18181818 -1500
          -338.70967742 -818.18181818 -1500 -241.93548387 -818.18181818 -1500
          -1500 -636.36363636 -1500 -1403.2258065 -636.36363636 -1500
          -1306.4516129 -636.36363636 -1500 -1209.6774194 -636.36363636 -1500
          -1112.9032258 -636.36363636 -1500 -1016.1290323 -636.36363636 -1500
          -919.35483871 -636.36363636 -1500 -822.58064516 -636.36363636 -1500
          -725.80645161 -636.36363636 -1500 -629.03225806 -636.36363636 -1500
          -532.25806452 -636.36363636 -1500 -435.48387097 -636.36363636 -1500
          -338.70967742 -636.36363636 -1500 -241.93548387 -636.36363636 -1500
          -1500 -454.54545455 -1500 -1403.2258065 -454.54545455 -1500
          -1306.4516129 -454.54545455 -1500 -1209.6774194 -454.54545455 -1500
          -1112.9032258 -454.54545455 -1500 -1016.1290323 -454.54545455 -1500
          -919.35483871 -454.54545455 -1500 -822.58064516 -454.54545455 -1500
          -725.80645161 -454.54545455 -1500 -629.03225806 -454.54545455 -1500
          -532.25806452 -454.54545455 -1500 -435.48387097 -454.54545455 -1500
          -338.70967742 -454.54545455 -1500 -241.93548387 -454.54545455 -1500
          -1500 -272.72727273 -1500 -1403.2258065 -272.72727273 -1500
          -1306.4516129 -272.72727273 -1500 -1209.6774194 -272.72727273 -1500
          -1112.9032258 -272.72727273 -1500 -1016.1290323 -272.72727273 -1500
          -919.35483871 -272.72727273 -1500 -822.58064516 -272.72727273 -1500
          -725.80645161 -272.72727273 -1500 -629.03225806 -272.72727273 -1500
          -532.25806452 -272.72727273 -1500 -435.48387097 -272.72727273 -1500
          -338.70967742 -272.72727273 -1500 -241.93548387 -272.72727273 -1500
          -1500 -90.909090909 -1500 -1403.2258065 -90.909090909 -1500
          -1306.4516129 -90.909090909 -1500 -1209.6774194 -90.909090909 -1500
          -1112.9032258 -90.909090909 -1500 -1016.1290323 -90.909090909 -1500
          -919.35483871 -90.909090909 -1500 -822.58064516 -90.909090909 -1500
          -725.80645161 -90.909090909 -1500 -629.03225806 -90.909090909 -1500
          -532.25806452 -90.909090909 -1500 -435.48387097 -90.909090909 -1500
          -338.70967742 -90.909090909 -1500 -241.93548387 -90.909090909 -1500
          -145.16129032 -90.909090909 -1500 -1500 90.909090909 -1500
          -1403.2258065 90.909090909 -1500 -1306.4516129 90.909090909 -1500
          -1209.6774194 90.909090909 -1500 -1112.9032258 90.909090909 -1500
          -1016.1290323 90.909090909 -1500 -919.35483871 90.909090909 -1500
          -822.58064516 90.909090909 -1500 -725.80645161 90.909090909 -1500
          -629.03225806 90.909090909 -1500 -532.25806452 90.909090909 -1500
          -435.48387097 90.909090909 -1500 -338.70967742 90.909090909 -1500
          -241.93548387 90.909090909 -1500 -145.16129032 90.909090909 -1500
          -48.387096774 90.909090909 -1500 -1500 272.72727273 -1500
          -1403.2258065 272.72727273 -1500 -1306.4516129 272.72727273 -1500
          -1209.6774194 272.72727273 -1500 -1112.9032258 272.72727273 -1500
          -1016.1290323 272.72727273 -1500 -919.35483871 272.72727273 -1500
          -822.58064516 272.72727273 -1500 -725.80645161 272.72727273 -1500
          -629.03225806 272.72727273 -1500 -532.25806452 272.72727273 -1500
          -435.48387097 272.72727273 -1500 -338.70967742 272.72727273 -1500
          -241.93548387 272.72727273 -1500 -145.16129032 272.72727273 -1500
          -48.387096774 272.72727273 -1500 48.387096774 272.72727273 -1500
          -1500 454.54545455 -1500 -1403.2258065 454.54545455 -1500
          -1306.4516129 454.54545455 -1500 -1209.6774194 454.54545455 -1500
          -1112.9032258 454.54545455 -1500 -1016.1290323 454.54545455 -1500
          -919.35483871 454.54545455 -1500 -822.58064516 454.54545455 -1500
          -725.80645161 454.54545455 -1500 -629.03225806 454.54545455 -1500
          -532.25806452 454.54545455 -1500 -435.48387097 454.54545455 -1500
          -338.70967742 454.54545455 -1500 -241.93548387 454.54545455 -1500
          -145.16129032 454.54545455 -1500 -48.387096774 454.54545455 -1500
          48.387096774 454.54545455 -1500 -1500 636.36363636 -1500
          -1403.2258065 636.36363636 -1500 -1306.4516129 636.36363636 -1500
          -1209.6774194 636.36363636 -1500 -1112.9032258 636.36363636 -1500
          -1016.1290323 636.36363636 -1500 -919.35483871 636.36363636 -1500
          -822.58064516 636.36363636 -1500 -725.80645161 636.36363636 -1500
          -629.03225806 636.36363636 -1500 -532.25806452 636.36363636 -1500
          -435.48387097 636.36363636 -1500 -338.70967742 636.36363636 -1500
          -241.93548387 636.36363636 -1500 -145.16129032 636.36363636 -1500
          -48.387096774 636.36363636 -1500 48.387096774 636.36363636 -1500
          -1500 818.18181818 -1500 -1403.2258065 818.18181818 -1500
          -1306.4516129 818.18181818 -1500 -1209.6774194 818.18181818 -1500
          -1112.9032258 818.18181818 -1500 -1016.1290323 818.18181818 -1500
          -919.35483871 818.18181818 -1500 -822.58064516 818.18181818 -1500
          -725.80645161 818.18181818 -1500 -629.03225806 818.18181818 -1500
          -532.25806452 818.18181818 -1500 -435.48387097 818.18181818 -1500
          -338.70967742 818.18181818 -1500 -241.93548387 818.18181818 -1500
          -145.16129032 818.18181818 -1500 -48.387096774 818.18181818 -1500
          48.387096774 818.18181818 -1500 145.16129032 818.18181818 -1500
          -1500 1000 -1500 -1403.2258065 1000 -1500
          -1306.4516129 1000 -1500 -1209.6774194 1000 -1500
          -1112.9032258 1000 -1500 -1016.1290323 1000 -1500
          -919.35483871 1000 -1500 -822.58064516 1000 -1500
          -725.80645161 1000 -1500 -629.03225806 1000 -1500
          -532.25806452 1000 -1500 -435.48387097 1000 -1500
          -338.70967742 1000 -1500 -241.93548387 1000 -1500
          -145.16129032 1000 -1500 -48.387096774 1000 -1500
          48.387096774 1000 -1500 145.16129032 1000 -1500
          -145.16129032 -1000 -1600 -48.387096774 -1000 -1600
          -145.16129032 -818.18181818 -1600 -48.387096774 -818.18181818 -1600
          -145.16129032 -636.36363636 -1600 -48.387096774 -636.36363636 -1600
          -145.16129032 -454.54545455 -1600 -48.387096774 -454.54545455 -1600
          -145.16129032 -272.72727273 -1600 -48.387096774 -272.72727273 -1600
          48.387096774 -272.72727273 -1600 -48.387096774 -90.909090909 -1600
          48.387096774 -90.909090909 -1600 145.16129032 -90.909090909 -1600
          48.387096774 90.909090909 -1600 145.16129032 90.909090909 -1600
          241.93548387 90.909090909 -1600 145.16129032 272.72727273 -1600
          241.93548387 272.72727273 -1600 145.16129032 454.54545455 -1600
          241.93548387 454.54545455 -1600 145.16129032 636.36363636 -1600
          241.93548387 636.36363636 -1600 338.70967742 636.36363636 -1600
          241.93548387 818.18181818 -1600 338.70967742 818.18181818 -1600
          241.93548387 1000 -1600 338.70967742 1000 -1600
          -145.16129032 -1000 -1500 -48.387096774 -1000 -1500
          -145.16129032 -818.18181818 -1500 -48.387096774 -818.18181818 -1500
          -145.16129032 -636.36363636 -1500 -48.387096774 -636.36363636 -1500
          -145.16129032 -454.54545455 -1500 -48.387096774 -454.54545455 -1500
          -145.16129032 -272.72727273 -1500 -48.387096774 -272.72727273 -1500
          48.387096774 -272.72727273 -1500 -48.387096774 -90.909090909 -1500
          48.387096774 -90.909090909 -1500 145.16129032 -90.909090909 -1500
          48.387096774 90.909090909 -1500 145.16129032 90.909090909 -1500
          241.93548387 90.909090909 -1500 145.16129032 272.72727273 -1500
          241.93548387 272.72727273 -1500 145.16129032 454.54545455 -1500
          241.93548387 454.54545455 -1500 145.16129032 636.36363636 -1500
          241.93548387 636.36363636 -1500 338.70967742 636.36363636 -1500
          241.93548387 818.18181818 -1500 338.70967742 818.18181818 -1500
          241.93548387 1000 -1500 338.70967742 1000 -1500
        </DataArray>
      </Points>
      <Cells>
        <DataArray type="Int64" Name="connectivity" format="ascii" RangeMin="0" RangeMax="430">
          0 1 14 15 188 189
          202 203 1 2 15 16
          189 190 203 204 2 3
          16 17 190 191 204 205
          3 4 17 18 191 192
          205 206 4 5 18 19
          192 193 206 207 5 6
          19 20 193 194 207 208
          6 7 20 21 194 195
          208 209 7 8 21 22
          195 196 209 210 8 9
          22 23 196 197 210 211
          9 10 23 24 197 198
          211 212 10 11 24 25
          198 199 212 213 11 12
          25 26 199 200 213 214
          12 13 26 27 200 201
          214 215 13 376 27 378
          201 404 215 406 14 15
          28 29 202 203 216 217
          15 16 29 30 203 204
          217 218 16 17 30 31
          204 205 218 219 17 18
          31 32 205 206 219 220
          18 19 32 33 206 207
          220 221 19 20 33 34
          207 208 221 222 20 21
          34 35 208 209 222 223
          21 22 35 36 209 210
          223 224 22 23 36 37
          210 211 224 225 23 24
          37 38 211 212 225 226
          24 25 38 39 212 213
          226 227 25 26 39 40
          213 214 227 228 26 27
          40 41 214 215 228 229
          27 378 41 380 215 406
          229 408 28 29 42 43
          216 217 230 231 29 30
          43 44 217 218 231 232
          30 31 44 45 218 219
          232 233 31 32 45 46
          219 220 233 234 32 33
          46 47 220 221 234 235
          33 34 47 48 221 222
          235 236 34 35 48 49
          222 223 236 237 35 36
          49 50 223 224 237 238
          36 37 50 51 224 225
          238 239 37 38 51 52
          225 226 239 240 38 39
          52 53 226 227 240 241
          39 40 53 54 227 228
          241 242 40 41 54 55
          228 229 242 243 41 380
          55 382 229 408 243 410
          42 43 56 57 230 231
          244 245 43 44 57 58
          231 232 245 246 44 45
          58 59 232 233 246 247
          45 46 59 60 233 234
          247 248 46 47 60 61
          234 235 248 249 47 48
          61 62 235 236 249 250
          48 49 62 63 236 237
          250 251 49 50 63 64
          237 238 251 252 50 51
          64 65 238 239 252 253
          51 52 65 66 239 240
          253 254 52 53 66 67
          240 241 254 255 53 54
          67 68 241 242 255 256
          54 55 68 69 242 243
          256 257 55 382 69 384
          243 410 257 412 56 57
          70 71 244 245 258 259
          57 58 71 72 245 246
          259 260 58 59 72 73
          246 247 260 261 59 60
          73 74 247 248 261 262
          60 61 74 75 248 249
          262 263 61 62 75 76
          249 250 263 264 62 63
          76 77 250 251 264 265
          63 64 77 78 251 252
          265 266 64 65 78 79
          252 253 266 267 65 66
          79 80 253 254 267 268
          66 67 80 81 254 255
          268 269 67 68 81 82
          255 256 269 270 68 69
          82 83 256 257 270 271
          69 384 83 84 257 412
          271 272 70 71 85 86
          258 259 273 274 71 72
          86 87 259 260 274 275
          72 73 87 88 260 261
          275 276 73 74 88 89
          261 262 276 277 74 75
          89 90 262 263 277 278
          75 76 90 91 263 264
          278 279 76 77 91 92
          264 265 279 280 77 78
          92 93 265 266 280 281
          78 79 93 94 266 267
          281 282 79 80 94 95
          267 268 282 283 80 81
          95 96 268 269 283 284
          81 82 96 97 269 270
          284 285 82 83 97 98
          270 271 285 286 83 84
          98 99 271 272 286 287
          84 387 99 100 272 415
          287 288 85 86 101 102
          273 274 289 290 86 87
          102 103 274 275 290 291
          87 88 103 104 275 276
          291 292 88 89 104 105
          276 277 292 293 89 90
          105 106 277 278 293 294
          90 91 106 107 278 279
          294 295 91 92 107 108
          279 280 295 296 92 93
          108 109 280 281 296 297
          93 94 109 110 281 282
          297 298 94 95 110 111
          282 283 298 299 95 96
          111 112 283 284 299 300
          96 97 112 113 284 285
          300 301 97 98 113 114
          285 286 301 302 98 99
          114 115 286 287 302 303
          99 100 115 116 287 288
          303 304 100 390 116 117
          288 418 304 305 101 102
          118 119 289 290 306 307
          102 103 119 120 290 291
          307 308 103 104 120 121
          291 292 308 309 104 105
          121 122 292 293 309 310
          105 106 122 123 293 294
          310 311 106 107 123 124
          294 295 311 312 107 108
          124 125 295 296 312 313
          108 109 125 126 296 297
          313 314 109 110 126 127
          297 298 314 315 110 111
          127 128 298 299 315 316
          111 112 128 129 299 300
          316 317 112 113 129 130
          300 301 317 318 113 114
          130 131 301 302 318 319
          114 115 131 132 302 303
          319 320 115 116 132 133
          303 304 320 321 116 117
          133 134 304 305 321 322
          117 393 134 395 305 421
          322 423 118 119 135 136
          306 307 323 324 119 120
          136 137 307 308 324 325
          120 121 137 138 308 309
          325 326 121 122 138 139
          309 310 326 327 122 123
          139 140 310 311 327 328
          123 124 140 141 311 312
          328 329 124 125 141 142
          312 313 329 330 125 126
          142 143 313 314 330 331