NOECHO

--GRIDUNIT
--  METRES /

SPECGRID
  10 16 12 1 F /


COORD
 0 0 0 0 0 1
100 0 0 100 0 1
200 0 0 200 0 1
300 0 0 300 0 1
400 0 0 400 0 1
500 0 0 500 0 1
600 0 0 600 0 1
700 0 0 700 0 1
800 0 0 800 0 1
900 0 0 900 0 1
1000 0 0 1000 0 1
0 100 0 0 100 1
100 100 0 100 100 1
200 100 0 200 100 1
300 100 0 300 100 1
400 100 0 400 100 1
500 100 0 500 100 1
600 100 0 600 100 1
700 100 0 700 100 1
800 100 0 800 100 1
900 100 0 900 100 1
1000 100 0 1000 100 1
0 200 0 0 200 1
100 200 0 100 200 1
200 200 0 200 200 1
300 200 0 300 200 1
400 200 0 400 200 1
500 200 0 500 200 1
600 200 0 600 200 1
700 200 0 700 200 1
800 200 0 800 200 1
900 200 0 900 200 1
1000 200 0 1000 200 1
0 300 0 0 300 1
100 300 0 100 300 1
200 300 0 200 300 1
300 300 0 300 300 1
400 300 0 400 300 1
500 300 0 500 300 1
600 300 0 600 300 1
700 300 0 700 300 1
800 300 0 800 300 1
900 300 0 900 300 1
1000 300 0 1000 300 1
0 400 0 0 400 1
100 400 0 100 400 1
200 400 0 200 400 1
300 400 0 300 400 1
400 400 0 400 400 1
500 400 0 500 400 1
600 400 0 600 400 1
700 400 0 700 400 1
800 400 0 800 400 1
900 400 0 900 400 1
1000 400 0 1000 400 1
0 500 0 0 500 1
100 500 0 100 500 1
200 500 0 200 500 1
300 500 0 300 500 1
400 500 0 400 500 1
500 500 0 500 500 1
600 500 0 600 500 1
700 500 0 700 500 1
800 500 0 800 500 1
900 500 0 900 500 1
1000 500 0 1000 500 1
0 600 0 0 600 1
100 600 0 100 600 1
200 600 0 200 600 1
300 600 0 300 600 1
400 600 0 400 600 1
500 600 0 500 600 1
600 600 0 600 600 1
700 600 0 700 600 1
800 600 0 800 600 1
900 600 0 900 600 1
1000 600 0 1000 600 1
0 700 0 0 700 1
100 700 0 100 700 1
200 700 0 200 700 1
300 700 0 300 700 1
400 700 0 400 700 1
500 700 0 500 700 1
600 700 0 600 700 1
700 700 0 700 700 1
800 700 0 800 700 1
900 700 0 900 700 1
1000 700 0 1000 700 1
0 800 0 0 800 1
100 800 0 100 800 1
200 800 0 200 800 1
300 800 0 300 800 1
400 800 0 400 800 1
500 800 0 500 800 1
600 800 0 600 800 1
700 800 0 700 800 1
800 800 0 800 800 1
900 800 0 900 800 1
1000 800 0 1000 800 1
0 900 0 0 900 1
100 900 0 100 900 1
200 900 0 200 900 1
300 900 0 300 900 1
400 900 0 400 900 1
500 900 0 500 900 1
600 900 0 600 900 1
700 900 0 700 900 1
800 900 0 800 900 1
900 900 0 900 900 1
1000 900 0 1000 900 1
0 1000 0 0 1000 1
100 1000 0 100 1000 1
200 1000 0 200 1000 1
300 1000 0 300 1000 1
400 1000 0 400 1000 1
500 1000 0 500 1000 1
600 1000 0 600 1000 1
700 1000 0 700 1000 1
800 1000 0 800 1000 1
900 1000 0 900 1000 1
1000 1000 0 1000 1000 1
0 1100 0 0 1100 1
100 1100 0 100 1100 1
200 1100 0 200 1100 1
300 1100 0 300 1100 1
400 1100 0 400 1100 1
500 1100 0 500 1100 1
600 1100 0 600 1100 1
700 1100 0 700 1100 1
800 1100 0 800 1100 1
900 1100 0 900 1100 1
1000 1100 0 1000 1100 1
0 1200 0 0 1200 1
100 1200 0 100 1200 1
200 1200 0 200 1200 1
300 1200 0 300 1200 1
400 1200 0 400 1200 1
500 1200 0 500 1200 1
600 1200 0 600 1200 1
700 1200 0 700 1200 1
800 1200 0 800 1200 1
900 1200 0 900 1200 1
1000 1200 0 1000 1200 1
0 1300 0 0 1300 1
100 1300 0 100 1300 1
200 1300 0 200 1300 1
300 1300 0 300 1300 1
400 1300 0 400 1300 1
500 1300 0 500 1300 1
600 1300 0 600 1300 1
700 1300 0 700 1300 1
800 1300 0 800 1300 1
900 1300 0 900 1300 1
1000 1300 0 1000 1300 1
0 1400 0 0 1400 1
100 1400 0 100 1400 1
200 1400 0 200 1400 1
300 1400 0 300 1400 1
400 1400 0 400 1400 1
500 1400 0 500 1400 1
600 1400 0 600 1400 1
700 1400 0 700 1400 1
800 1400 0 800 1400 1
900 1400 0 900 1400 1
1000 1400 0 1000 1400 1
0 1500 0 0 1500 1
100 1500 0 100 1500 1
200 1500 0 200 1500 1
300 1500 0 300 1500 1
400 1500 0 400 1500 1
500 1500 0 500 1500 1
600 1500 0 600 1500 1
700 1500 0 700 1500 1
800 1500 0 800 1500 1
900 1500 0 900 1500 1
1000 1500 0 1000 1500 1
0 1600 0 0 1600 1
100 1600 0 100 1600 1
200 1600 0 200 1600 1
300 1600 0 300 1600 1
400 1600 0 400 1600 1
500 1600 0 500 1600 1
600 1600 0 600 1600 1
700 1600 0 700 1600 1
800 1600 0 800 1600 1
900 1600 0 900 1600 1
1000 1600 0 1000 1600 1
/

ZCORN
1716	1716	1716	1716	1716	1717	1717	1719	1719	1720	1720	1723	1723	1726	1726	1739	1739	1769	1769	1769
1716	1714	1714	1713	1713	1711	1711	1711	1711	1714	1714	1717	1717	1720	1720	1726	1726	1769	1769	1769
1716	1714	1714	1713	1713	1711	1711	1711	1711	1714	1714	1717	1717	1720	1720	1726	1726	1769	1769	1769
1716	1700	1700	1685	1685	1685	1685	1687	1687	1708	1708	1716	1716	1723	1723	1731	1731	1769	1769	1769
1716	1700	1700	1685	1685	1685	1685	1687	1687	1708	1708	1716	1716	1723	1723	1731	1731	1769	1769	1769
1716	1693	1693	1678	1678	1670	1670	1685	1685	1708	1708	1716	1716	1723	1723	1731	1731	1761	1761	1761
1716	1693	1693	1678	1678	1670	1670	1685	1685	1708	1708	1716	1716	1723	1723	1731	1731	1761	1761	1761
1716	1700	1700	1678	1678	1671	1671	1678	1678	1708	1708	1716	1716	1723	1723	1731	1731	1746	1746	1746
1716	1700	1700	1678	1678	1671	1671	1678	1678	1708	1708	1716	1716	1723	1723	1731	1731	1746	1746	1746
1716	1700	1700	1678	1678	1671	1671	1678	1678	1708	1708	1716	1716	1723	1723	1731	1731	1746	1746	1746
1716	1700	1700	1678	1678	1671	1671	1678	1678	1708	1708	1716	1716	1723	1723	1731	1731	1746	1746	1746
1800	1784	1784	1754	1754	1761	1761	1769	1769	1784	1784	1800	1800	1784	1784	1807	1807	1845	1845	1845
1800	1784	1784	1754	1754	1761	1761	1769	1769	1784	1784	1800	1800	1784	1784	1807	1807	1845	1845	1845
1807	1792	1792	1761	1761	1761	1761	1777	1777	1800	1800	1822	1822	1821	1821	1821	1821	1853	1853	1853
1807	1792	1792	1761	1761	1761	1761	1777	1777	1800	1800	1822	1822	1821	1821	1821	1821	1853	1853	1853
1800	1800	1800	1769	1769	1769	1769	1784	1784	1792	1792	1793	1793	1800	1800	1803	1803	1807	1807	1807
1800	1800	1800	1769	1769	1769	1769	1784	1784	1792	1792	1793	1793	1800	1800	1803	1803	1807	1807	1807
1784	1769	1769	1761	1761	1761	1761	1761	1761	1754	1754	1761	1761	1784	1784	1787	1787	1792	1792	1792
1784	1769	1769	1761	1761	1761	1761	1761	1761	1754	1754	1761	1761	1784	1784	1787	1787	1792	1792	1792
1777	1761	1761	1761	1761	1769	1769	1763	1763	1763	1763	1777	1777	1784	1784	1792	1792	1800	1800	1800
1777	1761	1761	1761	1761	1769	1769	1763	1763	1763	1763	1777	1777	1784	1784	1792	1792	1800	1800	1800
1792	1792	1792	1796	1796	1800	1800	1800	1800	1804	1804	1806	1806	1806	1806	1806	1806	1807	1807	1807
1792	1792	1792	1796	1796	1800	1800	1800	1800	1804	1804	1806	1806	1806	1806	1806	1806	1807	1807	1807
1822	1815	1815	1822	1822	1830	1830	1833	1833	1830	1830	1822	1822	1827	1827	1828	1828	1830	1830	1830
1822	1815	1815	1822	1822	1830	1830	1833	1833	1830	1830	1822	1822	1827	1827	1828	1828	1830	1830	1830
1830	1830	1830	1838	1838	1839	1839	1839	1839	1836	1836	1839	1839	1839	1839	1842	1842	1845	1845	1845
1830	1830	1830	1838	1838	1839	1839	1839	1839	1836	1836	1839	1839	1839	1839	1842	1842	1845	1845	1845
1845	1838	1838	1857	1857	1857	1857	1857	1857	1861	1861	1861	1861	1861	1861	1854	1854	1848	1848	1848
1845	1838	1838	1857	1857	1857	1857	1857	1857	1861	1861	1861	1861	1861	1861	1854	1854	1848	1848	1848
1868	1868	1868	1868	1868	1868	1868	1868	1868	1868	1868	1868	1868	1868	1868	1868	1868	1868	1868	1868
1868	1868	1868	1868	1868	1868	1868	1868	1868	1868	1868	1868	1868	1868	1868	1868	1868	1868	1868	1868
1891	1891	1891	1891	1891	1891	1891	1891	1891	1891	1891	1891	1891	1891	1891	1891	1891	1891	1891	1891
1726	1726	1726	1726	1726	1727	1727	1729	1729	1730	1730	1733	1733	1736	1736	1749	1749	1779	1779	1779
1726	1724	1724	1723	1723	1721	1721	1721	1721	1724	1724	1727	1727	1730	1730	1736	1736	1779	1779	1779
1726	1724	1724	1723	1723	1721	1721	1721	1721	1724	1724	1727	1727	1730	1730	1736	1736	1779	1779	1779
1726	1710	1710	1695	1695	1695	1695	1697	1697	1718	1718	1726	1726	1733	1733	1741	1741	1779	1779	1779
1726	1710	1710	1695	1695	1695	1695	1697	1697	1718	1718	1726	1726	1733	1733	1741	1741	1779	1779	1779
1726	1703	1703	1688	1688	1680	1680	1695	1695	1718	1718	1726	1726	1733	1733	1741	1741	1771	1771	1771
1726	1703	1703	1688	1688	1680	1680	1695	1695	1718	1718	1726	1726	1733	1733	1741	1741	1771	1771	1771
1726	1710	1710	1688	1688	1681	1681	1688	1688	1718	1718	1726	1726	1733	1733	1741	1741	1756	1756	1756
1726	1710	1710	1688	1688	1681	1681	1688	1688	1718	1718	1726	1726	1733	1733	1741	1741	1756	1756	1756
1726	1710	1710	1688	1688	1681	1681	1688	1688	1718	1718	1726	1726	1733	1733	1741	1741	1756	1756	1756
1726	1710	1710	1688	1688	1681	1681	1688	1688	1718	1718	1726	1726	1733	1733	1741	1741	1756	1756	1756
1810	1794	1794	1764	1764	1771	1771	1779	1779	1794	1794	1810	1810	1794	1794	1817	1817	1855	1855	1855
1810	1794	1794	1764	1764	1771	1771	1779	1779	1794	1794	1810	1810	1794	1794	1817	1817	1855	1855	1855
1817	1802	1802	1771	1771	1771	1771	1787	1787	1810	1810	1832	1832	1831	1831	1831	1831	1863	1863	1863
1817	1802	1802	1771	1771	1771	1771	1787	1787	1810	1810	1832	1832	1831	1831	1831	1831	1863	1863	1863
1810	1810	1810	1779	1779	1779	1779	1794	1794	1802	1802	1803	1803	1810	1810	1813	1813	1817	1817	1817
1810	1810	1810	1779	1779	1779	1779	1794	1794	1802	1802	1803	1803	1810	1810	1813	1813	1817	1817	1817
1794	1779	1779	1771	1771	1771	1771	1771	1771	1764	1764	1771	1771	1794	1794	1797	1797	1802	1802	1802
1794	1779	1779	1771	1771	1771	1771	1771	1771	1764	1764	1771	1771	1794	1794	1797	1797	1802	1802	1802
1787	1771	1771	1771	1771	1779	1779	1773	1773	1773	1773	1787	1787	1794	1794	1802	1802	1810	1810	1810
1787	1771	1771	1771	1771	1779	1779	1773	1773	1773	1773	1787	1787	1794	1794	1802	1802	1810	1810	1810
1802	1802	1802	1806	1806	1810	1810	1810	1810	1814	1814	1816	1816	1816	1816	1816	1816	1817	1817	1817
1802	1802	1802	1806	1806	1810	1810	1810	1810	1814	1814	1816	1816	1816	1816	1816	1816	1817	1817	1817
1832	1825	1825	1832	1832	1840	1840	1843	1843	1840	1840	1832	1832	1837	1837	1838	1838	1840	1840	1840
1832	1825	1825	1832	1832	1840	1840	1843	1843	1840	1840	1832	1832	1837	1837	1838	1838	1840	1840	1840
1840	1840	1840	1848	1848	1849	1849	1849	1849	1846	1846	1849	1849	1849	1849	1852	1852	1855	1855	1855
1840	1840	1840	1848	1848	1849	1849	1849	1849	1846	1846	1849	1849	1849	1849	1852	1852	1855	1855	1855
1855	1848	1848	1867	1867	1867	1867	1867	1867	1871	1871	1871	1871	1871	1871	1864	1864	1858	1858	1858
1855	1848	1848	1867	1867	1867	1867	1867	1867	1871	1871	1871	1871	1871	1871	1864	1864	1858	1858	1858
1878	1878	1878	1878	1878	1878	1878	1878	1878	1878	1878	1878	1878	1878	1878	1878	1878	1878	1878	1878
1878	1878	1878	1878	1878	1878	1878	1878	1878	1878	1878	1878	1878	1878	1878	1878	1878	1878	1878	1878
1901	1901	1901	1901	1901	1901	1901	1901	1901	1901	1901	1901	1901	1901	1901	1901	1901	1901	1901	1901
1726	1726	1726	1726	1726	1727	1727	1729	1729	1730	1730	1733	1733	1736	1736	1749	1749	1779	1779	1779
1726	1724	1724	1723	1723	1721	1721	1721	1721	1724	1724	1727	1727	1730	1730	1736	1736	1779	1779	1779
1726	1724	1724	1723	1723	1721	1721	1721	1721	1724	1724	1727	1727	1730	1730	1736	1736	1779	1779	1779
1726	1710	1710	1695	1695	1695	1695	1697	1697	1718	1718	1726	1726	1733	1733	1741	1741	1779	1779	1779
1726	1710	1710	1695	1695	1695	1695	1697	1697	1718	1718	1726	1726	1733	1733	1741	1741	1779	1779	1779
1726	1703	1703	1688	1688	1680	1680	1695	1695	1718	1718	1726	1726	1733	1733	1741	1741	1771	1771	1771
1726	1703	1703	1688	1688	1680	1680	1695	1695	1718	1718	1726	1726	1733	1733	1741	1741	1771	1771	1771
1726	1710	1710	1688	1688	1681	1681	1688	1688	1718	1718	1726	1726	1733	1733	1741	1741	1756	1756	1756
1726	1710	1710	1688	1688	1681	1681	1688	1688	1718	1718	1726	1726	1733	1733	1741	1741	1756	1756	1756
1726	1710	1710	1688	1688	1681	1681	1688	1688	1718	1718	1726	1726	1733	1733	1741	1741	1756	1756	1756
1726	1710	1710	1688	1688	1681	1681	1688	1688	1718	1718	1726	1726	1733	1733	1741	1741	1756	1756	1756
1810	1794	1794	1764	1764	1771	1771	1779	1779	1794	1794	1810	1810	1794	1794	1817	1817	1855	1855	1855
1810	1794	1794	1764	1764	1771	1771	1779	1779	1794	1794	1810	1810	1794	1794	1817	1817	1855	1855	1855
1817	1802	1802	1771	1771	1771	1771	1787	1787	1810	1810	1832	1832	1831	1831	1831	1831	1863	1863	1863
1817	1802	1802	1771	1771	1771	1771	1787	1787	1810	1810	1832	1832	1831	1831	1831	1831	1863	1863	1863
1810	1810	1810	1779	1779	1779	1779	1794	1794	1802	1802	1803	1803	1810	1810	1813	1813	1817	1817	1817
1810	1810	1810	1779	1779	1779	1779	1794	1794	1802	1802	1803	1803	1810	1810	1813	1813	1817	1817	1817
1794	1779	1779	1771	1771	1771	1771	1771	1771	1764	1764	1771	1771	1794	1794	1797	1797	1802	1802	1802
1794	1779	1779	1771	1771	1771	1771	1771	1771	1764	1764	1771	1771	1794	1794	1797	1797	1802	1802	1802
1787	1771	1771	1771	1771	1779	1779	1773	1773	1773	1773	1787	1787	1794	1794	1802	1802	1810	1810	1810
1787	1771	1771	1771	1771	1779	1779	1773	1773	1773	1773	1787	1787	1794	1794	1802	1802	1810	1810	1810
1802	1802	1802	1806	1806	1810	1810	1810	1810	1814	1814	1816	1816	1816	1816	1816	1816	1817	1817	1817
1802	1802	1802	1806	1806	1810	1810	1810	1810	1814	1814	1816	1816	1816	1816	1816	1816	1817	1817	1817
1832	1825	1825	1832	1832	1840	1840	1843	1843	1840	1840	1832	1832	1837	1837	1838	1838	1840	1840	1840
1832	1825	1825	1832	1832	1840	1840	1843	1843	1840	1840	1832	1832	1837	1837	1838	1838	1840	1840	1840
1840	1840	1840	1848	1848	1849	1849	1849	1849	1846	1846	1849	1849	1849	1849	1852	1852	1855	1855	1855
1840	1840	1840	1848	1848	1849	1849	1849	1849	1846	1846	1849	1849	1849	1849	1852	1852	1855	1855	1855
1855	1848	1848	1867	1867	1867	1867	1867	1867	1871	1871	1871	1871	1871	1871	1864	1864	1858	1858	1858
1855	1848	1848	1867	1867	1867	1867	1867	1867	1871	1871	1871	1871	1871	1871	1864	1864	1858	1858	1858
1878	1878	1878	1878	1878	1878	1878	1878	1878	1878	1878	1878	1878	1878	1878	1878	1878	1878	1878	1878
1878	1878	1878	1878	1878	1878	1878	1878	1878	1878	1878	1878	1878	1878	1878	1878	1878	1878	1878	1878
1901	1901	1901	1901	1901	1901	1901	1901	1901	1901	1901	1901	1901	1901	1901	1901	1901	1901	1901	1901
1736	1736	1736	1736	1736	1737	1737	1739	1739	1740	1740	1743	1743	1746	1746	1759	1759	1789	1789	1789
1736	1734	1734	1733	1733	1731	1731	1731	1731	1734	1734	1737	1737	1740	1740	1746	1746	1789	1789	1789
1736	1734	1734	1733	1733	1731	1731	1731	1731	1734	1734	1737	1737	1740	1740	1746	1746	1789	1789	1789
1736	1720	1720	1705	1705	1705	1705	1707	1707	1728	1728	1736	1736	1743	1743	1751	1751	1789	1789	1789
1736	1720	1720	1705	1705	1705	1705	1707	1707	1728	1728	1736	1736	1743	1743	1751	1751	1789	1789	1789
1736	1713	1713	1698	1698	1690	1690	1705	1705	1728	1728	1736	1736	1743	1743	1751	1751	1781	1781	1781
1736	1713	1713	1698	1698	1690	1690	1705	1705	1728	1728	1736	1736	1743	1743	1751	1751	1781	1781	1781
1736	1720	1720	1698	1698	1691	1691	1698	1698	1728	1728	1736	1736	1743	1743	1751	1751	1766	1766	1766
1736	1720	1720	1698	1698	1691	1691	1698	1698	1728	1728	1736	1736	1743	1743	1751	1751	1766	1766	1766
1736	1720	1720	1698	1698	1691	1691	1698	1698	1728	1728	1736	1736	1743	1743	1751	1751	1766	1766	1766
1736	1720	1720	1698	1698	1691	1691	1698	1698	1728	1728	1736	1736	1743	1743	1751	1751	1766	1766	1766
1820	1804	1804	1774	1774	1781	1781	1789	1789	1804	1804	1820	1820	1804	1804	1827	1827	1865	1865	1865
1820	1804	1804	1774	1774	1781	1781	1789	1789	1804	1804	1820	1820	1804	1804	1827	1827	1865	1865	1865
1827	1812	1812	1781	1781	1781	1781	1797	1797	1820	1820	1842	1842	1841	1841	1841	1841	1873	1873	1873
1827	1812	1812	1781	1781	1781	1781	1797	1797	1820	1820	1842	1842	1841	1841	1841	1841	1873	1873	1873
1820	1820	1820	1789	1789	1789	1789	1804	1804	1812	1812	1813	1813	1820	1820	1823	1823	1827	1827	1827
1820	1820	1820	1789	1789	1789	1789	1804	1804	1812	1812	1813	1813	1820	1820	1823	1823	1827	1827	1827
1804	1789	1789	1781	1781	1781	1781	1781	1781	1774	1774	1781	1781	1804	1804	1807	1807	1812	1812	1812
1804	1789	1789	1781	1781	1781	1781	1781	1781	1774	1774	1781	1781	1804	1804	1807	1807	1812	1812	1812
1797	1781	1781	1781	1781	1789	1789	1783	1783	1783	1783	1797	1797	1804	1804	1812	1812	1820	1820	1820
1797	1781	1781	1781	1781	1789	1789	1783	1783	1783	1783	1797	1797	1804	1804	1812	1812	1820	1820	1820
1812	1812	1812	1816	1816	1820	1820	1820	1820	1824	1824	1826	1826	1826	1826	1826	1826	1827	1827	1827
1812	1812	1812	1816	1816	1820	1820	1820	1820	1824	1824	1826	1826	1826	1826	1826	1826	1827	1827	1827
1842	1835	1835	1842	1842	1850	1850	1853	1853	1850	1850	1842	1842	1847	1847	1848	1848	1850	1850	1850
1842	1835	1835	1842	1842	1850	1850	1853	1853	1850	1850	1842	1842	1847	1847	1848	1848	1850	1850	1850
1850	1850	1850	1858	1858	1859	1859	1859	1859	1856	1856	1859	1859	1859	1859	1862	1862	1865	1865	1865
1850	1850	1850	1858	1858	1859	1859	1859	1859	1856	1856	1859	1859	1859	1859	1862	1862	1865	1865	1865
1865	1858	1858	1877	1877	1877	1877	1877	1877	1881	1881	1881	1881	1881	1881	1874	1874	1868	1868	1868
1865	1858	1858	1877	1877	1877	1877	1877	1877	1881	1881	1881	1881	1881	1881	1874	1874	1868	1868	1868
1888	1888	1888	1888	1888	1888	1888	1888	1888	1888	1888	1888	1888	1888	1888	1888	1888	1888	1888	1888
1888	1888	1888	1888	1888	1888	1888	1888	1888	1888	1888	1888	1888	1888	1888	1888	1888	1888	1888	1888
1911	1911	1911	1911	1911	1911	1911	1911	1911	1911	1911	1911	1911	1911	1911	1911	1911	1911	1911	1911
1736	1736	1736	1736	1736	1737	1737	1739	1739	1740	1740	1743	1743	1746	1746	1759	1759	1789	1789	1789
1736	1734	1734	1733	1733	1731	1731	1731	1731	1734	1734	1737	1737	1740	1740	1746	1746	1789	1789	1789
1736	1734	1734	1733	1733	1731	1731	1731	1731	1734	1734	1737	1737	1740	1740	1746	1746	1789	1789	1789
1736	1720	1720	1705	1705	1705	1705	1707	1707	1728	1728	1736	1736	1743	1743	1751	1751	1789	1789	1789
1736	1720	1720	1705	1705	1705	1705	1707	1707	1728	1728	1736	1736	1743	1743	1751	1751	1789	1789	1789
1736	1713	1713	1698	1698	1690	1690	1705	1705	1728	1728	1736	1736	1743	1743	1751	1751	1781	1781	1781
1736	1713	1713	1698	1698	1690	1690	1705	1705	1728	1728	1736	1736	1743	1743	1751	1751	1781	1781	1781
1736	1720	1720	1698	1698	1691	1691	1698	1698	1728	1728	1736	1736	1743	1743	1751	1751	1766	1766	1766
1736	1720	1720	1698	1698	1691	1691	1698	1698	1728	1728	1736	1736	1743	1743	1751	1751	1766	1766	1766
1736	1720	1720	1698	1698	1691	1691	1698	1698	1728	1728	1736	1736	1743	1743	1751	1751	1766	1766	1766
1736	1720	1720	1698	1698	1691	1691	1698	1698	1728	1728	1736	1736	1743	1743	1751	1751	1766	1766	1766
1820	1804	1804	1774	1774	1781	1781	1789	1789	1804	1804	1820	1820	1804	1804	1827	1827	1865	1865	1865
1820	1804	1804	1774	1774	1781	1781	1789	1789	1804	1804	1820	1820	1804	1804	1827	1827	1865	1865	1865
1827	1812	1812	1781	1781	1781	1781	1797	1797	1820	1820	1842	1842	1841	1841	1841	1841	1873	1873	1873
1827	1812	1812	1781	1781	1781	1781	1797	1797	1820	1820	1842	1842	1841	1841	1841	1841	1873	1873	1873
1820	1820	1820	1789	1789	1789	1789	1804	1804	1812	1812	1813	1813	1820	1820	1823	1823	1827	1827	1827
1820	1820	1820	1789	1789	1789	1789	1804	1804	1812	1812	1813	1813	1820	1820	1823	1823	1827	1827	1827
1804	1789	1789	1781	1781	1781	1781	1781	1781	1774	1774	1781	1781	1804	1804	1807	1807	1812	1812	1812
1804	1789	1789	1781	1781	1781	1781	1781	1781	1774	1774	1781	1781	1804	1804	1807	1807	1812	1812	1812
1797	1781	1781	1781	1781	1789	1789	1783	1783	1783	1783	1797	1797	1804	1804	1812	1812	1820	1820	1820
1797	1781	1781	1781	1781	1789	1789	1783	1783	1783	1783	1797	1797	1804	1804	1812	1812	1820	1820	1820
1812	1812	1812	1816	1816	1820	1820	1820	1820	1824	1824	1826	1826	1826	1826	1826	1826	1827	1827	1827
1812	1812	1812	1816	1816	1820	1820	1820	1820	1824	1824	1826	1826	1826	1826	1826	1826	1827	1827	1827
1842	1835	1835	1842	1842	1850	1850	1853	1853	1850	1850	1842	1842	1847	1847	1848	1848	1850	1850	1850
1842	1835	1835	1842	1842	1850	1850	1853	1853	1850	1850	1842	1842	1847	1847	1848	1848	1850	1850	1850
1850	1850	1850	1858	1858	1859	1859	1859	1859	1856	1856	1859	1859	1859	1859	1862	1862	1865	1865	1865
1850	1850	1850	1858	1858	1859	1859	1859	1859	1856	1856	1859	1859	1859	1859	1862	1862	1865	1865	1865
1865	1858	1858	1877	1877	1877	1877	1877	1877	1881	1881	1881	1881	1881	1881	1874	1874	1868	1868	1868
1865	1858	1858	1877	1877	1877	1877	1877	1877	1881	1881	1881	1881	1881	1881	1874	1874	1868	1868	1868
1888	1888	1888	1888	1888	1888	1888	1888	1888	1888	1888	1888	1888	1888	1888	1888	1888	1888	1888	1888
1888	1888	1888	1888	1888	1888	1888	1888	1888	1888	1888	1888	1888	1888	1888	1888	1888	1888	1888	1888
1911	1911	1911	1911	1911	1911	1911	1911	1911	1911	1911	1911	1911	1911	1911	1911	1911	1911	1911	1911
1746	1746	1746	1746	1746	1747	1747	1749	1749	1750	1750	1753	1753	1756	1756	1769	1769	1799	1799	1799
1746	1744	1744	1743	1743	1741	1741	1741	1741	1744	1744	1747	1747	1750	1750	1756	1756	1799	1799	1799
1746	1744	1744	1743	1743	1741	1741	1741	1741	1744	1744	1747	1747	1750	1750	1756	1756	1799	1799	1799
1746	1730	1730	1715	1715	1715	1715	1717	1717	1738	1738	1746	1746	1753	1753	1761	1761	1799	1799	1799
1746	1730	1730	1715	1715	1715	1715	1717	1717	1738	1738	1746	1746	1753	1753	1761	1761	1799	1799	1799
1746	1723	1723	1708	1708	1700	1700	1715	1715	1738	1738	1746	1746	1753	1753	1761	1761	1791	1791	1791
1746	1723	1723	1708	1708	1700	1700	1715	1715	1738	1738	1746	1746	1753	1753	1761	1761	1791	1791	1791
1746	1730	1730	1708	1708	1701	1701	1708	1708	1738	1738	1746	1746	1753	1753	1761	1761	1776	1776	1776
1746	1730	1730	1708	1708	1701	1701	1708	1708	1738	1738	1746	1746	1753	1753	1761	1761	1776	1776	1776
1746	1730	1730	1708	1708	1701	1701	1708	1708	1738	1738	1746	1746	1753	1753	1761	1761	1776	1776	1776
1746	1730	1730	1708	1708	1701	1701	1708	1708	1738	1738	1746	1746	1753	1753	1761	1761	1776	1776	1776
1830	1814	1814	1784	1784	1791	1791	1799	1799	1814	1814	1830	1830	1814	1814	1837	1837	1875	1875	1875
1830	1814	1814	1784	1784	1791	1791	1799	1799	1814	1814	1830	1830	1814	1814	1837	1837	1875	1875	1875
1837	1822	1822	1791	1791	1791	1791	1807	1807	1830	1830	1852	1852	1851	1851	1851	1851	1883	1883	1883
1837	1822	1822	1791	1791	1791	1791	1807	1807	1830	1830	1852	1852	1851	1851	1851	1851	1883	1883	1883
1830	1830	1830	1799	1799	1799	1799	1814	1814	1822	1822	1823	1823	1830	1830	1833	1833	1837	1837	1837
1830	1830	1830	1799	1799	1799	1799	1814	1814	1822	1822	1823	1823	1830	1830	1833	1833	1837	1837	1837
1814	1799	1799	1791	1791	1791	1791	1791	1791	1784	1784	1791	1791	1814	1814	1817	1817	1822	1822	1822
1814	1799	1799	1791	1791	1791	1791	1791	1791	1784	1784	1791	1791	1814	1814	1817	1817	1822	1822	1822
1807	1791	1791	1791	1791	1799	1799	1793	1793	1793	1793	1807	1807	1814	1814	1822	1822	1830	1830	1830
1807	1791	1791	1791	1791	1799	1799	1793	1793	1793	1793	1807	1807	1814	1814	1822	1822	1830	1830	1830
1822	1822	1822	1826	1826	1830	1830	1830	1830	1834	1834	1836	1836	1836	1836	1836	1836	1837	1837	1837
1822	1822	1822	1826	1826	1830	1830	1830	1830	1834	1834	1836	1836	1836	1836	1836	1836	1837	1837	1837
1852	1845	1845	1852	1852	1860	1860	1863	1863	1860	1860	1852	1852	1857	1857	1858	1858	1860	1860	1860
1852	1845	1845	1852	1852	1860	1860	1863	1863	1860	1860	1852	1852	1857	1857	1858	1858	1860	1860	1860
1860	1860	1860	1868	1868	1869	1869	1869	1869	1866	1866	1869	1869	1869	1869	1872	1872	1875	1875	1875
1860	1860	1860	1868	1868	1869	1869	1869	1869	1866	1866	1869	1869	1869	1869	1872	1872	1875	1875	1875
1875	1868	1868	1887	1887	1887	1887	1887	1887	1891	1891	1891	1891	1891	1891	1884	1884	1878	1878	1878
1875	1868	1868	1887	1887	1887	1887	1887	1887	1891	1891	1891	1891	1891	1891	1884	1884	1878	1878	1878
1898	1898	1898	1898	1898	1898	1898	1898	1898	1898	1898	1898	1898	1898	1898	1898	1898	1898	1898	1898
1898	1898	1898	1898	1898	1898	1898	1898	1898	1898	1898	1898	1898	1898	1898	1898	1898	1898	1898	1898
1921	1921	1921	1921	1921	1921	1921	1921	1921	1921	1921	1921	1921	1921	1921	1921	1921	1921	1921	1921
1746	1746	1746	1746	1746	1747	1747	1749	1749	1750	1750	1753	1753	1756	1756	1769	1769	1799	1799	1799
1746	1744	1744	1743	1743	1741	1741	1741	1741	1744	1744	1747	1747	1750	1750	1756	1756	1799	1799	1799
1746	1744	1744	1743	1743	1741	1741	1741	1741	1744	1744	1747	1747	1750	1750	1756	1756	1799	1799	1799
1746	1730	1730	1715	1715	1715	1715	1717	1717	1738	1738	1746	1746	1753	1753	1761	1761	1799	1799	1799
1746	1730	1730	1715	1715	1715	1715	1717	1717	1738	1738	1746	1746	1753	1753	1761	1761	1799	1799	1799
1746	1723	1723	1708	1708	1700	1700	1715	1715	1738	1738	1746	1746	1753	1753	1761	1761	1791	1791	1791
1746	1723	1723	1708	1708	1700	1700	1715	1715	1738	1738	1746	1746	1753	1753	1761	1761	1791	1791	1791
1746	1730	1730	1708	1708	1701	1701	1708	1708	1738	1738	1746	1746	1753	1753	1761	1761	1776	1776	1776
1746	1730	1730	1708	1708	1701	1701	1708	1708	1738	1738	1746	1746	1753	1753	1761	1761	1776	1776	1776
1746	1730	1730	1708	1708	1701	1701	1708	1708	1738	1738	1746	1746	1753	1753	1761	1761	1776	1776	1776
1746	1730	1730	1708	1708	1701	1701	1708	1708	1738	1738	1746	1746	1753	1753	1761	1761	1776	1776	1776
1830	1814	1814	1784	1784	1791	1791	1799	1799	1814	1814	1830	1830	1814	1814	1837	1837	1875	1875	1875
1830	1814	1814	1784	1784	1791	1791	1799	1799	1814	1814	1830	1830	1814	1814	1837	1837	1875	1875	1875
1837	1822	1822	1791	1791	1791	1791	1807	1807	1830	1830	1852	1852	1851	1851	1851	1851	1883	1883	1883
1837	1822	1822	1791	1791	1791	1791	1807	1807	1830	1830	1852	1852	1851	1851	1851	1851	1883	1883	1883
1830	1830	1830	1799	1799	1799	1799	1814	1814	1822	1822	1823	1823	1830	1830	1833	1833	1837	1837	1837
1830	1830	1830	1799	1799	1799	1799	1814	1814	1822	1822	1823	1823	1830	1830	1833	1833	1837	1837	1837
1814	1799	1799	1791	1791	1791	1791	1791	1791	1784	1784	1791	1791	1814	1814	1817	1817	1822	1822	1822
1814	1799	1799	1791	1791	1791	1791	1791	1791	1784	1784	1791	1791	1814	1814	1817	1817	1822	1822	1822
1807	1791	1791	1791	1791	1799	1799	1793	1793	1793	1793	1807	1807	1814	1814	1822	1822	1830	1830	1830
1807	1791	1791	1791	1791	1799	1799	1793	1793	1793	1793	1807	1807	1814	1814	1822	1822	1830	1830	1830
1822	1822	1822	1826	1826	1830	1830	1830	1830	1834	1834	1836	1836	1836	1836	1836	1836	1837	1837	1837
1822	1822	1822	1826	1826	1830	1830	1830	1830	1834	1834	1836	1836	1836	1836	1836	1836	1837	1837	1837
1852	1845	1845	1852	1852	1860	1860	1863	1863	1860	1860	1852	1852	1857	1857	1858	1858	1860	1860	1860
1852	1845	1845	1852	1852	1860	1860	1863	1863	1860	1860	1852	1852	1857	1857	1858	1858	1860	1860	1860
1860	1860	1860	1868	1868	1869	1869	1869	1869	1866	1866	1869	1869	1869	1869	1872	1872	1875	1875	1875
1860	1860	1860	1868	1868	1869	1869	1869	1869	1866	1866	1869	1869	1869	1869	1872	1872	1875	1875	1875
1875	1868	1868	1887	1887	1887	1887	1887	1887	1891	1891	1891	1891	1891	1891	1884	1884	1878	1878	1878
1875	1868	1868	1887	1887	1887	1887	1887	1887	1891	1891	1891	1891	1891	1891	1884	1884	1878	1878	1878
1898	1898	1898	1898	1898	1898	1898	1898	1898	1898	1898	1898	1898	1898	1898	1898	1898	1898	1898	1898
1898	1898	1898	1898	1898	1898	1898	1898	1898	1898	1898	1898	1898	1898	1898	1898	1898	1898	1898	1898
1921	1921	1921	1921	1921	1921	1921	1921	1921	1921	1921	1921	1921	1921	1921	1921	1921	1921	1921	1921
1756	1756	1756	1756	1756	1757	1757	1759	1759	1760	1760	1763	1763	1766	1766	1779	1779	1809	1809	1809
1756	1754	1754	1753	1753	1751	1751	1751	1751	1754	1754	1757	1757	1760	1760	1766	1766	1809	1809	1809
1756	1754	1754	1753	1753	1751	1751	1751	1751	1754	1754	1757	1757	1760	1760	1766	1766	1809	1809	1809
1756	1740	1740	1725	1725	1725	1725	1727	1727	1748	1748	1756	1756	1763	1763	1771	1771	1809	1809	1809
1756	1740	1740	1725	1725	1725	1725	1727	1727	1748	1748	1756	1756	1763	1763	1771	1771	1809	1809	1809
1756	1733	1733	1718	1718	1710	1710	1725	1725	1748	1748	1756	1756	1763	1763	1771	1771	1801	1801	1801
1756	1733	1733	1718	1718	1710	1710	1725	1725	1748	1748	1756	1756	1763	1763	1771	1771	1801	1801	1801
1756	1740	1740	1718	1718	1711	1711	1718	1718	1748	1748	1756	1756	1763	1763	1771	1771	1786	1786	1786
1756	1740	1740	1718	1718	1711	1711	1718	1718	1748	1748	1756	1756	1763	1763	1771	1771	1786	1786	1786
1756	1740	1740	1718	1718	1711	1711	1718	1718	1748	1748	1756	1756	1763	1763	1771	1771	1786	1786	1786
1756	1740	1740	1718	1718	1711	1711	1718	1718	1748	1748	1756	1756	1763	1763	1771	1771	1786	1786	1786
1840	1824	1824	1794	1794	1801	1801	1809	1809	1824	1824	1840	1840	1824	1824	1847	1847	1885	1885	1885
1840	1824	1824	1794	1794	1801	1801	1809	1809	1824	1824	1840	1840	1824	1824	1847	1847	1885	1885	1885
1847	1832	1832	1801	1801	1801	1801	1817	1817	1840	1840	1862	1862	1861	1861	1861	1861	1893	1893	1893
1847	1832	1832	1801	1801	1801	1801	1817	1817	1840	1840	1862	1862	1861	1861	1861	1861	1893	1893	1893
1840	1840	1840	1809	1809	1809	1809	1824	1824	1832	1832	1833	1833	1840	1840	1843	1843	1847	1847	1847
1840	1840	1840	1809	1809	1809	1809	1824	1824	1832	1832	1833	1833	1840	1840	1843	1843	1847	1847	1847
1824	1809	1809	1801	1801	1801	1801	1801	1801	1794	1794	1801	1801	1824	1824	1827	1827	1832	1832	1832
1824	1809	1809	1801	1801	1801	1801	1801	1801	1794	1794	1801	1801	1824	1824	1827	1827	1832	1832	1832
1817	1801	1801	1801	1801	1809	1809	1803	1803	1803	1803	1817	1817	1824	1824	1832	1832	1840	1840	1840
1817	1801	1801	1801	1801	1809	1809	1803	1803	1803	1803	1817	1817	1824	1824	1832	1832	1840	1840	1840
1832	1832	1832	1836	1836	1840	1840	1840	1840	1844	1844	1846	1846	1846	1846	1846	1846	1847	1847	1847
1832	1832	1832	1836	1836	1840	1840	1840	1840	1844	1844	1846	1846	1846	1846	1846	1846	1847	1847	1847
1862	1855	1855	1862	1862	1870	1870	1873	1873	1870	1870	1862	1862	1867	1867	1868	1868	1870	1870	1870
1862	1855	1855	1862	1862	1870	1870	1873	1873	1870	1870	1862	1862	1867	1867	1868	1868	1870	1870	1870
1870	1870	1870	1878	1878	1879	1879	1879	1879	1876	1876	1879	1879	1879	1879	1882	1882	1885	1885	1885
1870	1870	1870	1878	1878	1879	1879	1879	1879	1876	1876	1879	1879	1879	1879	1882	1882	1885	1885	1885
1885	1878	1878	1897	1897	1897	1897	1897	1897	1901	1901	1901	1901	1901	1901	1894	1894	1888	1888	1888
1885	1878	1878	1897	1897	1897	1897	1897	1897	1901	1901	1901	1901	1901	1901	1894	1894	1888	1888	1888
1908	1908	1908	1908	1908	1908	1908	1908	1908	1908	1908	1908	1908	1908	1908	1908	1908	1908	1908	1908
1908	1908	1908	1908	1908	1908	1908	1908	1908	1908	1908	1908	1908	1908	1908	1908	1908	1908	1908	1908
1931	1931	1931	1931	1931	1931	1931	1931	1931	1931	1931	1931	1931	1931	1931	1931	1931	1931	1931	1931
1756	1756	1756	1756	1756	1757	1757	1759	1759	1760	1760	1763	1763	1766	1766	1779	1779	1809	1809	1809
1756	1754	1754	1753	1753	1751	1751	1751	1751	1754	1754	1757	1757	1760	1760	1766	1766	1809	1809	1809
1756	1754	1754	1753	1753	1751	1751	1751	1751	1754	1754	1757	1757	1760	1760	1766	1766	1809	1809	1809
1756	1740	1740	1725	1725	1725	1725	1727	1727	1748	1748	1756	1756	1763	1763	1771	1771	1809	1809	1809
1756	1740	1740	1725	1725	1725	1725	1727	1727	1748	1748	1756	1756	1763	1763	1771	1771	1809	1809	1809