<?xml version="1.0"?>
<VTKFile type="UnstructuredGrid" version="0.1" byte_order="LittleEndian" header_type="UInt32" compressor="vtkZLibDataCompressor">
  <UnstructuredGrid>
    <Piece NumberOfPoints="432" NumberOfCells="171">
      <PointData>
      </PointData>
      <CellData>
        <DataArray type="Float64" Name="Pressure cell" format="ascii" RangeMin="10000000" RangeMax="10000000">
          20557741.192 19921756.942 19285217.339 18648133.689 18010517.318 17372379.577
          16733731.84 16094585.5 15454951.971 14814842.685 14174269.094 13533242.664
          12891774.881 12249877.241 11607561.256 10964838.449 10321720.367 20557741.192
          19921756.942 19285217.339 18648133.689 18010517.318 17372379.577 16733731.84
          16094585.5 15454951.971 14814842.685 14174269.094 13533242.664 12891774.881
          12249877.241 11607561.256 10964838.449 10321720.367 20557741.192 19921756.942
          19285217.339 18648133.689 18010517.318 17372379.577 16733731.84 16094585.5
          15454951.971 14814842.685 14174269.094 13533242.664 12891774.881 12249877.241
          11607561.256 10964838.449 10321720.367 20557741.192 19921756.942 19285217.339
          18648133.689 18010517.318 17372379.577 16733731.84 16094585.5 15454951.971
          14814842.685 14174269.094 13533242.664 12891774.881 12249877.241 11607561.256
          10964838.449 10321720.367 20557741.192 19921756.942 19285217.339 18648133.689
          18010517.318 17372379.577 16733731.84 16094585.5 15454951.971 14814842.685
          14174269.094 13533242.664 12891774.881 12249877.241 11607561.256 10964838.449
          10321720.367 19921756.942 19285217.339 18648133.689 18010517.318 17372379.578
          16733731.84 16094585.5 15454951.971 14814842.685 14174269.094 13533242.664
          12891774.881 12249877.241 11607561.256 10964838.449 10321720.367 19285217.34
          18648133.689 18010517.318 17372379.578 16733731.84 16094585.5 15454951.971
          14814842.685 14174269.094 13533242.665 12891774.881 12249877.241 11607561.256
          10964838.449 10321720.367 18648133.689 18010517.318 17372379.578 16733731.84
          16094585.5 15454951.971 14814842.685 14174269.094 13533242.665 12891774.881
          12249877.241 11607561.256 10964838.449 10321720.367 18648133.689 18010517.318
          17372379.578 16733731.841 16094585.5 15454951.971 14814842.685 14174269.094
          13533242.665 12891774.881 12249877.241 11607561.256 10964838.449 10321720.367
          18648133.689 18010517.318 17372379.578 16733731.841 16094585.5 15454951.971
          14814842.685 14174269.094 13533242.665 12891774.881 12249877.241 11607561.256
          10964838.449 10321720.367 18010517.318 17372379.578 16733731.841 16094585.5
          15454951.971 14814842.685 14174269.094 13533242.665 12891774.881 12249877.241
          11607561.256 10964838.449 10321720.367
        </DataArray>
        <DataArray type="Float64" Name="Temperature cell" format="ascii" RangeMin="373.15" RangeMax="373.15">
          373.15 373.15 373.15 373.15 373.15 373.15
          373.15 373.15 373.15 373.15 373.15 373.15
          373.15 373.15 373.15 373.15 373.15 373.15
          373.15 373.15 373.15 373.15 373.15 373.15
          373.15 373.15 373.15 373.15 373.15 373.15
          373.15 373.15 373.15 373.15 373.15 373.15
          373.15 373.15 373.15 373.15 373.15 373.15
          373.15 373.15 373.15 373.15 373.15 373.15
          373.15 373.15 373.15 373.15 373.15 373.15
          373.15 373.15 373.15 373.15 373.15 373.15
          373.15 373.15 373.15 373.15 373.15 373.15
          373.15 373.15 373.15 373.15 373.15 373.15
          373.15 373.15 373.15 373.15 373.15 373.15
          373.15 373.15 373.15 373.15 373.15 373.15
          373.15 373.15 373.15 373.15 373.15 373.15
          373.15 373.15 373.15 373.15 373.15 373.15
          373.15 373.15 373.15 373.15 373.15 373.15
          373.15 373.15 373.15 373.15 373.15 373.15
          373.15 373.15 373.15 373.15 373.15 373.15
          373.15 373.15 373.15 373.15 373.15 373.15
          373.15 373.15 373.15 373.15 373.15 373.15
          373.15 373.15 373.15 373.15 373.15 373.15
          373.15 373.15 373.15 373.15 373.15 373.15
          373.15 373.15 373.15 373.15 373.15 373.15
          373.15 373.15 373.15 373.15 373.15 373.15
          373.15 373.15 373.15 373.15 373.15 373.15
          373.15 373.15 373.15 373.15 373.15 373.15
          373.15 373.15 373.15 373.15 373.15 373.15
          373.15 373.15 373.15
        </DataArray>
        <DataArray type="Float64" Name="Phase 1 Comp 1 cell " format="ascii" RangeMin="1" RangeMax="1">
          1 1 1 1 1 1
          1 1 1 1 1 1
          1 1 1 1 1 1
          1 1 1 1 1 1
          1 1 1 1 1 1
          1 1 1 1 1 1
          1 1 1 1 1 1
          1 1 1 1 1 1
          1 1 1 1 1 1
          1 1 1 1 1 1
          1 1 1 1 1 1
          1 1 1 1 1 1
          1 1 1 1 1 1
          1 1 1 1 1 1
          1 1 1 1 1 1
          1 1 1 1 1 1
          1 1 1 1 1 1
          1 1 1 1 1 1
          1 1 1 1 1 1
          1 1 1 1 1 1
          1 1 1 1 1 1
          1 1 1 1 1 1
          1 1 1 1 1 1
          1 1 1 1 1 1
          1 1 1 1 1 1
          1 1 1 1 1 1
          1 1 1 1 1 1
          1 1 1 1 1 1
          1 1 1
        </DataArray>
        <DataArray type="Float64" Name="Phase 2 Comp 1 cell " format="ascii" RangeMin="1" RangeMax="1">
          1 1 1 1 1 1
          1 1 1 1 1 1
          1 1 1 1 1 1
          1 1 1 1 1 1
          1 1 1 1 1 1
          1 1 1 1 1 1
          1 1 1 1 1 1
          1 1 1 1 1 1
          1 1 1 1 1 1
          1 1 1 1 1 1
          1 1 1 1 1 1
          1 1 1 1 1 1
          1 1 1 1 1 1
          1 1 1 1 1 1
          1 1 1 1 1 1
          1 1 1 1 1 1
          1 1 1 1 1 1
          1 1 1 1 1 1
          1 1 1 1 1 1
          1 1 1 1 1 1
          1 1 1 1 1 1
          1 1 1 1 1 1
          1 1 1 1 1 1
          1 1 1 1 1 1
          1 1 1 1 1 1
          1 1 1 1 1 1
          1 1 1 1 1 1
          1 1 1 1 1 1
          1 1 1
        </DataArray>
        <DataArray type="Float64" Name="Saturation 1 cell" format="ascii" RangeMin="0" RangeMax="0">
          0 0 0 0 0 0
          0 0 0 0 0 0
          0 0 0 0 0 0
          0 0 0 0 0 0
          0 0 0 0 0 0
          0 0 0 0 0 0
          0 0 0 0 0 0
          0 0 0 0 0 0
          0 0 0 0 0 0
          0 0 0 0 0 0
          0 0 0 0 0 0
          0 0 0 0 0 0
          0 0 0 0 0 0
          0 0 0 0 0 0
          0 0 0 0 0 0
          0 0 0 0 0 0
          0 0 0 0 0 0
          0 0 0 0 0 0
          0 0 0 0 0 0
          0 0 0 0 0 0
          0 0 0 0 0 0
          0 0 0 0 0 0
          0 0 0 0 0 0
          0 0 0 0 0 0
          0 0 0 0 0 0
          0 0 0 0 0 0
          0 0 0 0 0 0
          0 0 0 0 0 0
          0 0 0
        </DataArray>
        <DataArray type="Float64" Name="Saturation 2 cell" format="ascii" RangeMin="1" RangeMax="1">
          1 1 1 1 1 1
          1 1 1 1 1 1
          1 1 1 1 1 1
          1 1 1 1 1 1
          1 1 1 1 1 1
          1 1 1 1 1 1
          1 1 1 1 1 1
          1 1 1 1 1 1
          1 1 1 1 1 1
          1 1 1 1 1 1
          1 1 1 1 1 1
          1 1 1 1 1 1
          1 1 1 1 1 1
          1 1 1 1 1 1
          1 1 1 1 1 1
          1 1 1 1 1 1
          1 1 1 1 1 1
          1 1 1 1 1 1
          1 1 1 1 1 1
          1 1 1 1 1 1
          1 1 1 1 1 1
          1 1 1 1 1 1
          1 1 1 1 1 1
          1 1 1 1 1 1
          1 1 1 1 1 1
          1 1 1 1 1 1
          1 1 1 1 1 1
          1 1 1 1 1 1
          1 1 1
        </DataArray>
      </CellData>
      <Points>
        <DataArray type="Float64" Name="Points" NumberOfComponents="3" format="ascii" RangeMin="1503.5311018" RangeMax="2410.3941586">
          -145.16129032 -1000 -1600 -48.387096774 -1000 -1600
          48.387096774 -1000 -1600 145.16129032 -1000 -1600
          241.93548387 -1000 -1600 338.70967742 -1000 -1600
          435.48387097 -1000 -1600 532.25806452 -1000 -1600
          629.03225806 -1000 -1600 725.80645161 -1000 -1600
          822.58064516 -1000 -1600 919.35483871 -1000 -1600
          1016.1290323 -1000 -1600 1112.9032258 -1000 -1600
          1209.6774194 -1000 -1600 1306.4516129 -1000 -1600
          1403.2258065 -1000 -1600 1500 -1000 -1600
          -145.16129032 -818.18181818 -1600 -48.387096774 -818.18181818 -1600
          48.387096774 -818.18181818 -1600 145.16129032 -818.18181818 -1600
          241.93548387 -818.18181818 -1600 338.70967742 -818.18181818 -1600
          435.48387097 -818.18181818 -1600 532.25806452 -818.18181818 -1600
          629.03225806 -818.18181818 -1600 725.80645161 -818.18181818 -1600
          822.58064516 -818.18181818 -1600 919.35483871 -818.18181818 -1600
          1016.1290323 -818.18181818 -1600 1112.9032258 -818.18181818 -1600
          1209.6774194 -818.18181818 -1600 1306.4516129 -818.18181818 -1600
          1403.2258065 -818.18181818 -1600 1500 -818.18181818 -1600
          -145.16129032 -636.36363636 -1600 -48.387096774 -636.36363636 -1600
          48.387096774 -636.36363636 -1600 145.16129032 -636.36363636 -1600
          241.93548387 -636.36363636 -1600 338.70967742 -636.36363636 -1600
          435.48387097 -636.36363636 -1600 532.25806452 -636.36363636 -1600
          629.03225806 -636.36363636 -1600 725.80645161 -636.36363636 -1600
          822.58064516 -636.36363636 -1600 919.35483871 -636.36363636 -1600
          1016.1290323 -636.36363636 -1600 1112.9032258 -636.36363636 -1600
          1209.6774194 -636.36363636 -1600 1306.4516129 -636.36363636 -1600
          1403.2258065 -636.36363636 -1600 1500 -636.36363636 -1600
          -145.16129032 -454.54545455 -1600 -48.387096774 -454.54545455 -1600
          48.387096774 -454.54545455 -1600 145.16129032 -454.54545455 -1600
          241.93548387 -454.54545455 -1600 338.70967742 -454.54545455 -1600
          435.48387097 -454.54545455 -1600 532.25806452 -454.54545455 -1600
          629.03225806 -454.54545455 -1600 725.80645161 -454.54545455 -1600
          822.58064516 -454.54545455 -1600 919.35483871 -454.54545455 -1600
          1016.1290323 -454.54545455 -1600 1112.9032258 -454.54545455 -1600
          1209.6774194 -454.54545455 -1600 1306.4516129 -454.54545455 -1600
          1403.2258065 -454.54545455 -1600 1500 -454.54545455 -1600
          -145.16129032 -272.72727273 -1600 -48.387096774 -272.72727273 -1600
          48.387096774 -272.72727273 -1600 145.16129032 -272.72727273 -1600
          241.93548387 -272.72727273 -1600 338.70967742 -272.72727273 -1600
          435.48387097 -272.72727273 -1600 532.25806452 -272.72727273 -1600
          629.03225806 -272.72727273 -1600 725.80645161 -272.72727273 -1600
          822.58064516 -272.72727273 -1600 919.35483871 -272.72727273 -1600
          1016.1290323 -272.72727273 -1600 1112.9032258 -272.72727273 -1600
          1209.6774194 -272.72727273 -1600 1306.4516129 -272.72727273 -1600
          1403.2258065 -272.72727273 -1600 1500 -272.72727273 -1600
          -48.387096774 -90.909090909 -1600 48.387096774 -90.909090909 -1600
          145.16129032 -90.909090909 -1600 241.93548387 -90.909090909 -1600
          338.70967742 -90.909090909 -1600 435.48387097 -90.909090909 -1600
          532.25806452 -90.909090909 -1600 629.03225806 -90.909090909 -1600
          725.80645161 -90.909090909 -1600 822.58064516 -90.909090909 -1600
          919.35483871 -90.909090909 -1600 1016.1290323 -90.909090909 -1600
          1112.9032258 -90.909090909 -1600 1209.6774194 -90.909090909 -1600
          1306.4516129 -90.909090909 -1600 1403.2258065 -90.909090909 -1600
          1500 -90.909090909 -1600 48.387096774 90.909090909 -1600
          145.16129032 90.909090909 -1600 241.93548387 90.909090909 -1600
          338.70967742 90.909090909 -1600 435.48387097 90.909090909 -1600
          532.25806452 90.909090909 -1600 629.03225806 90.909090909 -1600
          725.80645161 90.909090909 -1600 822.58064516 90.909090909 -1600
          919.35483871 90.909090909 -1600 1016.1290323 90.909090909 -1600
          1112.9032258 90.909090909 -1600 1209.6774194 90.909090909 -1600
          1306.4516129 90.909090909 -1600 1403.2258065 90.909090909 -1600
          1500 90.909090909 -1600 145.16129032 272.72727273 -1600
          241.93548387 272.72727273 -1600 338.70967742 272.72727273 -1600
          435.48387097 272.72727273 -1600 532.25806452 272.72727273 -1600
          629.03225806 272.72727273 -1600 725.80645161 272.72727273 -1600
          822.58064516 272.72727273 -1600 919.35483871 272.72727273 -1600
          1016.1290323 272.72727273 -1600 1112.9032258 272.72727273 -1600
          1209.6774194 272.72727273 -1600 1306.4516129 272.72727273 -1600
          1403.2258065 272.72727273 -1600 1500 272.72727273 -1600
          145.16129032 454.54545455 -1600 241.93548387 454.54545455 -1600
          338.70967742 454.54545455 -1600 435.48387097 454.54545455 -1600
          532.25806452 454.54545455 -1600 629.03225806 454.54545455 -1600
          725.80645161 454.54545455 -1600 822.58064516 454.54545455 -1600
          919.35483871 454.54545455 -1600 1016.1290323 454.54545455 -1600
          1112.9032258 454.54545455 -1600 1209.6774194 454.54545455 -1600
          1306.4516129 454.54545455 -1600 1403.2258065 454.54545455 -1600
          1500 454.54545455 -1600 145.16129032 636.36363636 -1600
          241.93548387 636.36363636 -1600 338.70967742 636.36363636 -1600
          435.48387097 636.36363636 -1600 532.25806452 636.36363636 -1600
          629.03225806 636.36363636 -1600 725.80645161 636.36363636 -1600
          822.58064516 636.36363636 -1600 919.35483871 636.36363636 -1600
          1016.1290323 636.36363636 -1600 1112.9032258 636.36363636 -1600
          1209.6774194 636.36363636 -1600 1306.4516129 636.36363636 -1600
          1403.2258065 636.36363636 -1600 1500 636.36363636 -1600
          241.93548387 818.18181818 -1600 338.70967742 818.18181818 -1600
          435.48387097 818.18181818 -1600 532.25806452 818.18181818 -1600
          629.03225806 818.18181818 -1600 725.80645161 818.18181818 -1600
          822.58064516 818.18181818 -1600 919.35483871 818.18181818 -1600
          1016.1290323 818.18181818 -1600 1112.9032258 818.18181818 -1600
          1209.6774194 818.18181818 -1600 1306.4516129 818.18181818 -1600
          1403.2258065 818.18181818 -1600 1500 818.18181818 -1600
          241.93548387 1000 -1600 338.70967742 1000 -1600
          435.48387097 1000 -1600 532.25806452 1000 -1600
          629.03225806 1000 -1600 725.80645161 1000 -1600
          822.58064516 1000 -1600 919.35483871 1000 -1600
          1016.1290323 1000 -1600 1112.9032258 1000 -1600
          1209.6774194 1000 -1600 1306.4516129 1000 -1600
          1403.2258065 1000 -1600 1500 1000 -1600
          -145.16129032 -1000 -1500 -48.387096774 -1000 -1500
          48.387096774 -1000 -1500 145.16129032 -1000 -1500
          241.93548387 -1000 -1500 338.70967742 -1000 -1500
          435.48387097 -1000 -1500 532.25806452 -1000 -1500
          629.03225806 -1000 -1500 725.80645161 -1000 -1500
          822.58064516 -1000 -1500 919.35483871 -1000 -1500
          1016.1290323 -1000 -1500 1112.9032258 -1000 -1500
          1209.6774194 -1000 -1500 1306.4516129 -1000 -1500
          1403.2258065 -1000 -1500 1500 -1000 -1500
          -145.16129032 -818.18181818 -1500 -48.387096774 -818.18181818 -1500
          48.387096774 -818.18181818 -1500 145.16129032 -818.18181818 -1500
          241.93548387 -818.18181818 -1500 338.70967742 -818.18181818 -1500
          435.48387097 -818.18181818 -1500 532.25806452 -818.18181818 -1500
          629.03225806 -818.18181818 -1500 725.80645161 -818.18181818 -1500
          822.58064516 -818.18181818 -1500 919.35483871 -818.18181818 -1500
          1016.1290323 -818.18181818 -1500 1112.9032258 -818.18181818 -1500
          1209.6774194 -818.18181818 -1500 1306.4516129 -818.18181818 -1500
          1403.2258065 -818.18181818 -1500 1500 -818.18181818 -1500
          -145.16129032 -636.36363636 -1500 -48.387096774 -636.36363636 -1500
          48.387096774 -636.36363636 -1500 145.16129032 -636.36363636 -1500
          241.93548387 -636.36363636 -1500 338.70967742 -636.36363636 -1500
          435.48387097 -636.36363636 -1500 532.25806452 -636.36363636 -1500
          629.03225806 -636.36363636 -1500 725.80645161 -636.36363636 -1500
          822.58064516 -636.36363636 -1500 919.35483871 -636.36363636 -1500
          1016.1290323 -636.36363636 -1500 1112.9032258 -636.36363636 -1500
          1209.6774194 -636.36363636 -1500 1306.4516129 -636.36363636 -1500
          1403.2258065 -636.36363636 -1500 1500 -636.36363636 -1500
          -145.16129032 -454.54545455 -1500 -48.387096774 -454.54545455 -1500
          48.387096774 -454.54545455 -1500 145.16129032 -454.54545455 -1500
          241.93548387 -454.54545455 -1500 338.70967742 -454.54545455 -1500
          435.48387097 -454.54545455 -1500 532.25806452 -454.54545455 -1500
          629.03225806 -454.54545455 -1500 725.80645161 -454.54545455 -1500
          822.58064516 -454.54545455 -1500 919.35483871 -454.54545455 -1500
          1016.1290323 -454.54545455 -1500 1112.9032258 -454.54545455 -1500
          1209.6774194 -454.54545455 -1500 1306.4516129 -454.54545455 -1500
          1403.2258065 -454.54545455 -1500 1500 -454.54545455 -1500
          -145.16129032 -272.72727273 -1500 -48.387096774 -272.72727273 -1500
          48.387096774 -272.72727273 -1500 145.16129032 -272.72727273 -1500
          241.93548387 -272.72727273 -1500 338.70967742 -272.72727273 -1500
          435.48387097 -272.72727273 -1500 532.25806452 -272.72727273 -1500
          629.03225806 -272.72727273 -1500 725.80645161 -272.72727273 -1500
          822.58064516 -272.72727273 -1500 919.35483871 -272.72727273 -1500
          1016.1290323 -272.72727273 -1500 1112.9032258 -272.72727273 -1500
          1209.6774194 -272.72727273 -1500 1306.4516129 -272.72727273 -1500
          1403.2258065 -272.72727273 -1500 1500 -272.72727273 -1500
          -48.387096774 -90.909090909 -1500 48.387096774 -90.909090909 -1500
          145.16129032 -90.909090909 -1500 241.93548387 -90.909090909 -1500
          338.70967742 -90.909090909 -1500 435.48387097 -90.909090909 -1500
          532.25806452 -90.909090909 -1500 629.03225806 -90.909090909 -1500
          725.80645161 -90.909090909 -1500 822.58064516 -90.909090909 -1500
          919.35483871 -90.909090909 -1500 1016.1290323 -90.909090909 -1500
          1112.9032258 -90.909090909 -1500 1209.6774194 -90.909090909 -1500
          1306.4516129 -90.909090909 -1500 1403.2258065 -90.909090909 -1500
          1500 -90.909090909 -1500 48.387096774 90.909090909 -1500
          145.16129032 90.909090909 -1500 241.93548387 90.909090909 -1500
          338.70967742 90.909090909 -1500 435.48387097 90.909090909 -1500
          532.25806452 90.909090909 -1500 629.03225806 90.909090909 -1500
          725.80645161 90.909090909 -1500 822.58064516 90.909090909 -1500
          919.35483871 90.909090909 -1500 1016.1290323 90.909090909 -1500
          1112.9032258 90.909090909 -1500 1209.6774194 90.909090909 -1500
          1306.4516129 90.909090909 -1500 1403.2258065 90.909090909 -1500
          1500 90.909090909 -1500 145.16129032 272.72727273 -1500
          241.93548387 272.72727273 -1500 338.70967742 272.72727273 -1500
          435.48387097 272.72727273 -1500 532.25806452 272.72727273 -1500
          629.03225806 272.72727273 -1500 725.80645161 272.72727273 -1500
          822.58064516 272.72727273 -1500 919.35483871 272.72727273 -1500
          1016.1290323 272.72727273 -1500 1112.9032258 272.72727273 -1500
          1209.6774194 272.72727273 -1500 1306.4516129 272.72727273 -1500
          1403.2258065 272.72727273 -1500 1500 272.72727273 -1500
          145.16129032 454.54545455 -1500 241.93548387 454.54545455 -1500
          338.70967742 454.54545455 -1500 435.48387097 454.54545455 -1500
          532.25806452 454.54545455 -1500 629.03225806 454.54545455 -1500
          725.80645161 454.54545455 -1500 822.58064516 454.54545455 -1500
          919.35483871 454.54545455 -1500 1016.1290323 454.54545455 -1500
          1112.9032258 454.54545455 -1500 1209.6774194 454.54545455 -1500
          1306.4516129 454.54545455 -1500 1403.2258065 454.54545455 -1500
          1500 454.54545455 -1500 145.16129032 636.36363636 -1500
          241.93548387 636.36363636 -1500 338.70967742 636.36363636 -1500
          435.48387097 636.36363636 -1500 532.25806452 636.36363636 -1500
          629.03225806 636.36363636 -1500 725.80645161 636.36363636 -1500
          822.58064516 636.36363636 -1500 919.35483871 636.36363636 -1500
          1016.1290323 636.36363636 -1500 1112.9032258 636.36363636 -1500
          1209.6774194 636.36363636 -1500 1306.4516129 636.36363636 -1500
          1403.2258065 636.36363636 -1500 1500 636.36363636 -1500
          241.93548387 818.18181818 -1500 338.70967742 818.18181818 -1500
          435.48387097 818.18181818 -1500 532.25806452 818.18181818 -1500
          629.03225806 818.18181818 -1500 725.80645161 818.18181818 -1500
          822.58064516 818.18181818 -1500 919.35483871 818.18181818 -1500
          1016.1290323 818.18181818 -1500 1112.9032258 818.18181818 -1500
          1209.6774194 818.18181818 -1500 1306.4516129 818.18181818 -1500
          1403.2258065 818.18181818 -1500 1500 818.18181818 -1500
          241.93548387 1000 -1500 338.70967742 1000 -1500
          435.48387097 1000 -1500 532.25806452 1000 -1500
          629.03225806 1000 -1500 725.80645161 1000 -1500
          822.58064516 1000 -1500 919.35483871 1000 -1500
          1016.1290323 1000 -1500 1112.9032258 1000 -1500
          1209.6774194 1000 -1500 1306.4516129 1000 -1500
          1403.2258065 1000 -1500 1500 1000 -1500
          -241.93548387 -1000 -1600 -241.93548387 -818.18181818 -1600
          -241.93548387 -636.36363636 -1600 -241.93548387 -454.54545455 -1600
          -241.93548387 -272.72727273 -1600 -241.93548387 -90.909090909 -1600
          -145.16129032 -90.909090909 -1600 -241.93548387 90.909090909 -1600
          -145.16129032 90.909090909 -1600 -48.387096774 90.909090909 -1600
          -145.16129032 272.72727273 -1600 -48.387096774 272.72727273 -1600
          48.387096774 272.72727273 -1600 -48.387096774 454.54545455 -1600
          48.387096774 454.54545455 -1600 48.387096774 636.36363636 -1600
          48.387096774 818.18181818 -1600 145.16129032 818.18181818 -1600
          48.387096774 1000 -1600 145.16129032 1000 -1600
          -241.93548387 -1000 -1500 -241.93548387 -818.18181818 -1500
          -241.93548387 -636.36363636 -1500 -241.93548387 -454.54545455 -1500
          -241.93548387 -272.72727273 -1500 -241.93548387 -90.909090909 -1500
          -145.16129032 -90.909090909 -1500 -241.93548387 90.909090909 -1500
          -145.16129032 90.909090909 -1500 -48.387096774 90.909090909 -1500
          -145.16129032 272.72727273 -1500 -48.387096774 272.72727273 -1500
          48.387096774 272.72727273 -1500 -48.387096774 454.54545455 -1500
          48.387096774 454.54545455 -1500 48.387096774 636.36363636 -1500
          48.387096774 818.18181818 -1500 145.16129032 818.18181818 -1500
          48.387096774 1000 -1500 145.16129032 1000 -1500
        </DataArray>
      </Points>
      <Cells>
        <DataArray type="Int64" Name="connectivity" format="ascii" RangeMin="0" RangeMax="429">
          0 1 18 19 196 197
          214 215 1 2 19 20
          197 198 215 216 2 3
          20 21 198 199 216 217
          3 4 21 22 199 200
          217 218 4 5 22 23
          200 201 218 219 5 6
          23 24 201 202 219 220
          6 7 24 25 202 203
          220 221 7 8 25 26
          203 204 221 222 8 9
          26 27 204 205 222 223
          9 10 27 28 205 206
          223 224 10 11 28 29
          206 207 224 225 11 12
          29 30 207 208 225 226
          12 13 30 31 208 209
          226 227 13 14 31 32
          209 210 227 228 14 15
          32 33 210 211 228 229
          15 16 33 34 211 212
          229 230 16 17 34 35
          212 213 230 231 18 19
          36 37 214 215 232 233
          19 20 37 38 215 216
          233 234 20 21 38 39
          216 217 234 235 21 22
          39 40 217 218 235 236
          22 23 40 41 218 219
          236 237 23 24 41 42
          219 220 237 238 24 25
          42 43 220 221 238 239
          25 26 43 44 221 222
          239 240 26 27 44 45
          222 223 240 241 27 28
          45 46 223 224 241 242
          28 29 46 47 224 225
          242 243 29 30 47 48
          225 226 243 244 30 31
          48 49 226 227 244 245
          31 32 49 50 227 228
          245 246 32 33 50 51
          228 229 246 247 33 34
          51 52 229 230 247 248
          34 35 52 53 230 231
          248 249 36 37 54 55
          232 233 250 251 37 38
          55 56 233 234 251 252
          38 39 56 57 234 235
          252 253 39 40 57 58
          235 236 253 254 40 41
          58 59 236 237 254 255
          41 42 59 60 237 238
          255 256 42 43 60 61
          238 239 256 257 43 44
          61 62 239 240 257 258
          44 45 62 63 240 241
          258 259 45 46 63 64
          241 242 259 260 46 47
          64 65 242 243 260 261
          47 48 65 66 243 244
          261 262 48 49 66 67
          244 245 262 263 49 50
          67 68 245 246 263 264
          50 51 68 69 246 247
          264 265 51 52 69 70
          247 248 265 266 52 53
          70 71 248 249 266 267
          54 55 72 73 250 251
          268 269 55 56 73 74
          251 252 269 270 56 57
          74 75 252 253 270 271
          57 58 75 76 253 254
          271 272 58 59 76 77
          254 255 272 273 59 60
          77 78 255 256 273 274
          60 61 78 79 256 257
          274 275 61 62 79 80
          257 258 275 276 62 63
          80 81 258 259 276 277
          63 64 81 82 259 260
          277 278 64 65 82 83
          260 261 278 279 65 66
          83 84 261 262 279 280
          66 67 84 85 262 263
          280 281 67 68 85 86
          263 264 281 282 68 69
          86 87 264 265 282 283
          69 70 87 88 265 266
          283 284 70 71 88 89
          266 267 284 285 72 73
          398 90 268 269 418 286
          73 74 90 91 269 270
          286 287 74 75 91 92
          270 271 287 288 75 76
          92 93 271 272 288 289
          76 77 93 94 272 273
          289 290 77 78 94 95
          273 274 290 291 78 79
          95 96 274 275 291 292
          79 80 96 97 275 276
          292 293 80 81 97 98
          276 277 293 294 81 82
          98 99 277 278 294 295
          82 83 99 100 278 279
          295 296 83 84 100 101
          279 280 296 297 84 85
          101 102 280 281 297 298
          85 86 102 103 281 282
          298 299 86 87 103 104
          282 283 299 300 87 88
          104 105 283 284 300 301
          88 89 105 106 284 285
          301 302 90 91 401 107
          286 287 421 303 91 92
          107 108 287 288 303 304
          92 93 108 109 288 289
          304 305 93 94 109 110
          289 290 305 306 94 95
          110 111 290 291 306 307
          95 96 111 112 291 292
          307 308 96 97 112 113
          292 293 308 309 97 98
          113 114 293 294 309 310
          98 99 114 115 294 295
          310 311 99 100 115 116
          295 296 311 312 100 101
          116 117 296 297 312 313
          101 102 117 118 297 298
          313 314 102 103 118 119
          298 299 314 315 103 104
          119 120 299 300 315 316
          104 105 120 121 300 301
          316 317 105 106 121 122
          301 302 317 318 107 108
          404 123 303 304 424 319
          108 109 123 124 304 305
          319 320 109 110 124 125
          305 306 320 321 110 111
          125 126 306 307 321 322
          111 112 126 127 307 308
          322 323 112 113 127 128
          308 309 323 324 113 114
          128 129 309 310 324 325
          114 115 129 130 310 311
          325 326 115 116 130 131
          311 312 326 327 116 117
          131 132 312 313 327 328
          117 118 132 133 313 314
          328 329 118 119 133 134
          314 315 329 330 119 120
          134 135 315 316 330 331
          120 121 135 136 316 317
          331 332 121 122 136 137
          317 318 332 333 123 124
          138 139 319 320 334 335
          124 125 139 140 320 321
          335 336 125 126 140 141
          321 322 336 337 126 127
          141 142 322 323 337 338
          127 128 142 143 323 324
          338 339 128 129 143 144
          324 325 339 340 129 130
          144 145 325 326 340 341
          130 131 145 146 326 327
          341 342 131 132 146 147
          327 328 342 343 132 133
          147 148 328 329 343 344
          133 134 148 149 329 330
          344 345 134 135 149 150
          330 331 345 346 135 136
          150 151 331 332 346 347
          136 137 151 152 332 333
          347 348 138 139 153 154
          334 335 349 350 139 140
          154 155 335 336 350 351
          140 141 155 156 336 337
          351 352 141 142 156 157
          337 338 352 353 142 143
          157 158 338 339 353 354
          143 144 158 159 339 340
          354 355 144 145 159 160
          340 341 355 356 145 146
          160 161 341 342 356 357
          146 147 161 162 342 343
          357 358 147 148 162 163
          343 344 358 359 148 149
          163 164 344 345 359 360
          149 150 164 165 345 346
          360 361 150 151 165 166
          346 347 361 362 151 152
          166 167 347 348 362 363
          153 154 409 168 349 350
          429 364 154 155 168 169
          350 351 364 365 155 156
          169 170 351 352 365 366
          156 157 170 171 352 353
          366 367 157 158 171 172
          353 354 367 368 158 159
          172 173 354 355 368 369
          159 160 173 174 355 356
          369 370 160 161 174 175
          356 357 370 371 161 162
          175 176 357 358 371 372
          162 163 176 177 358 359
          372 373 163 164 177 178